+ 0.1 1 2 cbr 1000 ------- 2 1.0 9.1 0 0
- 0.1 1 2 cbr 1000 ------- 2 1.0 9.1 0 0
+ 0.108 1 2 cbr 1000 ------- 2 1.0 9.1 1 1
- 0.108 1 2 cbr 1000 ------- 2 1.0 9.1 1 1
r 0.114 1 2 cbr 1000 ------- 2 1.0 9.1 0 0
+ 0.114 2 3 cbr 1000 ------- 2 1.0 9.1 0 0
- 0.114 2 3 cbr 1000 ------- 2 1.0 9.1 0 0
+ 0.116 1 2 cbr 1000 ------- 2 1.0 9.1 2 2
- 0.116 1 2 cbr 1000 ------- 2 1.0 9.1 2 2
r 0.122 1 2 cbr 1000 ------- 2 1.0 9.1 1 1
+ 0.122 2 3 cbr 1000 ------- 2 1.0 9.1 1 1
- 0.122 2 3 cbr 1000 ------- 2 1.0 9.1 1 1
+ 0.124 1 2 cbr 1000 ------- 2 1.0 9.1 3 3
- 0.124 1 2 cbr 1000 ------- 2 1.0 9.1 3 3
r 0.13 1 2 cbr 1000 ------- 2 1.0 9.1 2 2
+ 0.13 2 3 cbr 1000 ------- 2 1.0 9.1 2 2
- 0.13 2 3 cbr 1000 ------- 2 1.0 9.1 2 2
+ 0.132 1 2 cbr 1000 ------- 2 1.0 9.1 4 4
- 0.132 1 2 cbr 1000 ------- 2 1.0 9.1 4 4
r 0.138 1 2 cbr 1000 ------- 2 1.0 9.1 3 3
+ 0.138 2 3 cbr 1000 ------- 2 1.0 9.1 3 3
- 0.138 2 3 cbr 1000 ------- 2 1.0 9.1 3 3
r 0.138706 2 3 cbr 1000 ------- 2 1.0 9.1 0 0
+ 0.138706 3 4 cbr 1000 ------- 2 1.0 9.1 0 0
- 0.138706 3 4 cbr 1000 ------- 2 1.0 9.1 0 0
+ 0.14 1 2 cbr 1000 ------- 2 1.0 9.1 5 5
- 0.14 1 2 cbr 1000 ------- 2 1.0 9.1 5 5
r 0.146 1 2 cbr 1000 ------- 2 1.0 9.1 4 4
+ 0.146 2 3 cbr 1000 ------- 2 1.0 9.1 4 4
- 0.146 2 3 cbr 1000 ------- 2 1.0 9.1 4 4
r 0.146706 2 3 cbr 1000 ------- 2 1.0 9.1 1 1
+ 0.146706 3 4 cbr 1000 ------- 2 1.0 9.1 1 1
- 0.146706 3 4 cbr 1000 ------- 2 1.0 9.1 1 1
+ 0.148 1 2 cbr 1000 ------- 2 1.0 9.1 6 6
- 0.148 1 2 cbr 1000 ------- 2 1.0 9.1 6 6
r 0.152706 3 4 cbr 1000 ------- 2 1.0 9.1 0 0
+ 0.152706 4 5 cbr 1000 ------- 2 1.0 9.1 0 0
- 0.152706 4 5 cbr 1000 ------- 2 1.0 9.1 0 0
r 0.154 1 2 cbr 1000 ------- 2 1.0 9.1 5 5
+ 0.154 2 3 cbr 1000 ------- 2 1.0 9.1 5 5
- 0.154 2 3 cbr 1000 ------- 2 1.0 9.1 5 5
r 0.154706 2 3 cbr 1000 ------- 2 1.0 9.1 2 2
+ 0.154706 3 4 cbr 1000 ------- 2 1.0 9.1 2 2
- 0.154706 3 4 cbr 1000 ------- 2 1.0 9.1 2 2
+ 0.156 1 2 cbr 1000 ------- 2 1.0 9.1 7 7
- 0.156 1 2 cbr 1000 ------- 2 1.0 9.1 7 7
r 0.160706 3 4 cbr 1000 ------- 2 1.0 9.1 1 1
+ 0.160706 4 5 cbr 1000 ------- 2 1.0 9.1 1 1
- 0.160706 4 5 cbr 1000 ------- 2 1.0 9.1 1 1
r 0.162 1 2 cbr 1000 ------- 2 1.0 9.1 6 6
+ 0.162 2 3 cbr 1000 ------- 2 1.0 9.1 6 6
- 0.162 2 3 cbr 1000 ------- 2 1.0 9.1 6 6
r 0.162706 2 3 cbr 1000 ------- 2 1.0 9.1 3 3
+ 0.162706 3 4 cbr 1000 ------- 2 1.0 9.1 3 3
- 0.162706 3 4 cbr 1000 ------- 2 1.0 9.1 3 3
+ 0.164 1 2 cbr 1000 ------- 2 1.0 9.1 8 8
- 0.164 1 2 cbr 1000 ------- 2 1.0 9.1 8 8
r 0.166706 4 5 cbr 1000 ------- 2 1.0 9.1 0 0
+ 0.166706 5 6 cbr 1000 ------- 2 1.0 9.1 0 0
- 0.166706 5 6 cbr 1000 ------- 2 1.0 9.1 0 0
r 0.168706 3 4 cbr 1000 ------- 2 1.0 9.1 2 2
+ 0.168706 4 5 cbr 1000 ------- 2 1.0 9.1 2 2
- 0.168706 4 5 cbr 1000 ------- 2 1.0 9.1 2 2
r 0.17 1 2 cbr 1000 ------- 2 1.0 9.1 7 7
+ 0.17 2 3 cbr 1000 ------- 2 1.0 9.1 7 7
- 0.17 2 3 cbr 1000 ------- 2 1.0 9.1 7 7
r 0.170706 2 3 cbr 1000 ------- 2 1.0 9.1 4 4
+ 0.170706 3 4 cbr 1000 ------- 2 1.0 9.1 4 4
- 0.170706 3 4 cbr 1000 ------- 2 1.0 9.1 4 4
+ 0.172 1 2 cbr 1000 ------- 2 1.0 9.1 9 9
- 0.172 1 2 cbr 1000 ------- 2 1.0 9.1 9 9
r 0.174706 4 5 cbr 1000 ------- 2 1.0 9.1 1 1
+ 0.174706 5 6 cbr 1000 ------- 2 1.0 9.1 1 1
- 0.174706 5 6 cbr 1000 ------- 2 1.0 9.1 1 1
r 0.176706 3 4 cbr 1000 ------- 2 1.0 9.1 3 3
+ 0.176706 4 5 cbr 1000 ------- 2 1.0 9.1 3 3
- 0.176706 4 5 cbr 1000 ------- 2 1.0 9.1 3 3
r 0.178 1 2 cbr 1000 ------- 2 1.0 9.1 8 8
+ 0.178 2 3 cbr 1000 ------- 2 1.0 9.1 8 8
- 0.178 2 3 cbr 1000 ------- 2 1.0 9.1 8 8
r 0.178706 2 3 cbr 1000 ------- 2 1.0 9.1 5 5
+ 0.178706 3 4 cbr 1000 ------- 2 1.0 9.1 5 5
- 0.178706 3 4 cbr 1000 ------- 2 1.0 9.1 5 5
+ 0.18 1 2 cbr 1000 ------- 2 1.0 9.1 10 10
- 0.18 1 2 cbr 1000 ------- 2 1.0 9.1 10 10
r 0.182706 4 5 cbr 1000 ------- 2 1.0 9.1 2 2
+ 0.182706 5 6 cbr 1000 ------- 2 1.0 9.1 2 2
- 0.182706 5 6 cbr 1000 ------- 2 1.0 9.1 2 2
r 0.184706 3 4 cbr 1000 ------- 2 1.0 9.1 4 4
+ 0.184706 4 5 cbr 1000 ------- 2 1.0 9.1 4 4
- 0.184706 4 5 cbr 1000 ------- 2 1.0 9.1 4 4
r 0.186 1 2 cbr 1000 ------- 2 1.0 9.1 9 9
+ 0.186 2 3 cbr 1000 ------- 2 1.0 9.1 9 9
- 0.186 2 3 cbr 1000 ------- 2 1.0 9.1 9 9
r 0.186706 2 3 cbr 1000 ------- 2 1.0 9.1 6 6
+ 0.186706 3 4 cbr 1000 ------- 2 1.0 9.1 6 6
- 0.186706 3 4 cbr 1000 ------- 2 1.0 9.1 6 6
+ 0.188 1 2 cbr 1000 ------- 2 1.0 9.1 11 11
- 0.188 1 2 cbr 1000 ------- 2 1.0 9.1 11 11
r 0.190706 4 5 cbr 1000 ------- 2 1.0 9.1 3 3
+ 0.190706 5 6 cbr 1000 ------- 2 1.0 9.1 3 3
- 0.190706 5 6 cbr 1000 ------- 2 1.0 9.1 3 3
r 0.191412 5 6 cbr 1000 ------- 2 1.0 9.1 0 0
+ 0.191412 6 7 cbr 1000 ------- 2 1.0 9.1 0 0
- 0.191412 6 7 cbr 1000 ------- 2 1.0 9.1 0 0
r 0.192706 3 4 cbr 1000 ------- 2 1.0 9.1 5 5
+ 0.192706 4 5 cbr 1000 ------- 2 1.0 9.1 5 5
- 0.192706 4 5 cbr 1000 ------- 2 1.0 9.1 5 5
r 0.194 1 2 cbr 1000 ------- 2 1.0 9.1 10 10
+ 0.194 2 3 cbr 1000 ------- 2 1.0 9.1 10 10
- 0.194 2 3 cbr 1000 ------- 2 1.0 9.1 10 10
r 0.194706 2 3 cbr 1000 ------- 2 1.0 9.1 7 7
+ 0.194706 3 4 cbr 1000 ------- 2 1.0 9.1 7 7
- 0.194706 3 4 cbr 1000 ------- 2 1.0 9.1 7 7
+ 0.196 1 2 cbr 1000 ------- 2 1.0 9.1 12 12
- 0.196 1 2 cbr 1000 ------- 2 1.0 9.1 12 12
r 0.198706 4 5 cbr 1000 ------- 2 1.0 9.1 4 4
+ 0.198706 5 6 cbr 1000 ------- 2 1.0 9.1 4 4
- 0.198706 5 6 cbr 1000 ------- 2 1.0 9.1 4 4
r 0.199412 5 6 cbr 1000 ------- 2 1.0 9.1 1 1
+ 0.199412 6 7 cbr 1000 ------- 2 1.0 9.1 1 1
- 0.199412 6 7 cbr 1000 ------- 2 1.0 9.1 1 1
r 0.200706 3 4 cbr 1000 ------- 2 1.0 9.1 6 6
+ 0.200706 4 5 cbr 1000 ------- 2 1.0 9.1 6 6
- 0.200706 4 5 cbr 1000 ------- 2 1.0 9.1 6 6
r 0.202 1 2 cbr 1000 ------- 2 1.0 9.1 11 11
+ 0.202 2 3 cbr 1000 ------- 2 1.0 9.1 11 11
- 0.202 2 3 cbr 1000 ------- 2 1.0 9.1 11 11
r 0.202706 2 3 cbr 1000 ------- 2 1.0 9.1 8 8
+ 0.202706 3 4 cbr 1000 ------- 2 1.0 9.1 8 8
- 0.202706 3 4 cbr 1000 ------- 2 1.0 9.1 8 8
+ 0.204 1 2 cbr 1000 ------- 2 1.0 9.1 13 13
- 0.204 1 2 cbr 1000 ------- 2 1.0 9.1 13 13
r 0.205412 6 7 cbr 1000 ------- 2 1.0 9.1 0 0
+ 0.205412 7 8 cbr 1000 ------- 2 1.0 9.1 0 0
- 0.205412 7 8 cbr 1000 ------- 2 1.0 9.1 0 0
r 0.206706 4 5 cbr 1000 ------- 2 1.0 9.1 5 5
+ 0.206706 5 6 cbr 1000 ------- 2 1.0 9.1 5 5
- 0.206706 5 6 cbr 1000 ------- 2 1.0 9.1 5 5
r 0.207412 5 6 cbr 1000 ------- 2 1.0 9.1 2 2
+ 0.207412 6 7 cbr 1000 ------- 2 1.0 9.1 2 2
- 0.207412 6 7 cbr 1000 ------- 2 1.0 9.1 2 2
r 0.208706 3 4 cbr 1000 ------- 2 1.0 9.1 7 7
+ 0.208706 4 5 cbr 1000 ------- 2 1.0 9.1 7 7
- 0.208706 4 5 cbr 1000 ------- 2 1.0 9.1 7 7
r 0.21 1 2 cbr 1000 ------- 2 1.0 9.1 12 12
+ 0.21 2 3 cbr 1000 ------- 2 1.0 9.1 12 12
- 0.21 2 3 cbr 1000 ------- 2 1.0 9.1 12 12
r 0.210706 2 3 cbr 1000 ------- 2 1.0 9.1 9 9
+ 0.210706 3 4 cbr 1000 ------- 2 1.0 9.1 9 9
- 0.210706 3 4 cbr 1000 ------- 2 1.0 9.1 9 9
+ 0.212 1 2 cbr 1000 ------- 2 1.0 9.1 14 14
- 0.212 1 2 cbr 1000 ------- 2 1.0 9.1 14 14
r 0.213412 6 7 cbr 1000 ------- 2 1.0 9.1 1 1
+ 0.213412 7 8 cbr 1000 ------- 2 1.0 9.1 1 1
- 0.213412 7 8 cbr 1000 ------- 2 1.0 9.1 1 1
r 0.214706 4 5 cbr 1000 ------- 2 1.0 9.1 6 6
+ 0.214706 5 6 cbr 1000 ------- 2 1.0 9.1 6 6
- 0.214706 5 6 cbr 1000 ------- 2 1.0 9.1 6 6
r 0.215412 5 6 cbr 1000 ------- 2 1.0 9.1 3 3
+ 0.215412 6 7 cbr 1000 ------- 2 1.0 9.1 3 3
- 0.215412 6 7 cbr 1000 ------- 2 1.0 9.1 3 3
r 0.216706 3 4 cbr 1000 ------- 2 1.0 9.1 8 8
+ 0.216706 4 5 cbr 1000 ------- 2 1.0 9.1 8 8
- 0.216706 4 5 cbr 1000 ------- 2 1.0 9.1 8 8
r 0.218 1 2 cbr 1000 ------- 2 1.0 9.1 13 13
+ 0.218 2 3 cbr 1000 ------- 2 1.0 9.1 13 13
- 0.218 2 3 cbr 1000 ------- 2 1.0 9.1 13 13
r 0.218706 2 3 cbr 1000 ------- 2 1.0 9.1 10 10
+ 0.218706 3 4 cbr 1000 ------- 2 1.0 9.1 10 10
- 0.218706 3 4 cbr 1000 ------- 2 1.0 9.1 10 10
r 0.219412 7 8 cbr 1000 ------- 2 1.0 9.1 0 0
+ 0.219412 8 9 cbr 1000 ------- 2 1.0 9.1 0 0
- 0.219412 8 9 cbr 1000 ------- 2 1.0 9.1 0 0
+ 0.22 1 2 cbr 1000 ------- 2 1.0 9.1 15 15
- 0.22 1 2 cbr 1000 ------- 2 1.0 9.1 15 15
r 0.221412 6 7 cbr 1000 ------- 2 1.0 9.1 2 2
+ 0.221412 7 8 cbr 1000 ------- 2 1.0 9.1 2 2
- 0.221412 7 8 cbr 1000 ------- 2 1.0 9.1 2 2
r 0.222706 4 5 cbr 1000 ------- 2 1.0 9.1 7 7
+ 0.222706 5 6 cbr 1000 ------- 2 1.0 9.1 7 7
- 0.222706 5 6 cbr 1000 ------- 2 1.0 9.1 7 7
r 0.223412 5 6 cbr 1000 ------- 2 1.0 9.1 4 4
+ 0.223412 6 7 cbr 1000 ------- 2 1.0 9.1 4 4
- 0.223412 6 7 cbr 1000 ------- 2 1.0 9.1 4 4
r 0.224706 3 4 cbr 1000 ------- 2 1.0 9.1 9 9
+ 0.224706 4 5 cbr 1000 ------- 2 1.0 9.1 9 9
- 0.224706 4 5 cbr 1000 ------- 2 1.0 9.1 9 9
r 0.226 1 2 cbr 1000 ------- 2 1.0 9.1 14 14
+ 0.226 2 3 cbr 1000 ------- 2 1.0 9.1 14 14
- 0.226 2 3 cbr 1000 ------- 2 1.0 9.1 14 14
r 0.226706 2 3 cbr 1000 ------- 2 1.0 9.1 11 11
+ 0.226706 3 4 cbr 1000 ------- 2 1.0 9.1 11 11
- 0.226706 3 4 cbr 1000 ------- 2 1.0 9.1 11 11
r 0.227412 7 8 cbr 1000 ------- 2 1.0 9.1 1 1
+ 0.227412 8 9 cbr 1000 ------- 2 1.0 9.1 1 1
- 0.227412 8 9 cbr 1000 ------- 2 1.0 9.1 1 1
+ 0.228 1 2 cbr 1000 ------- 2 1.0 9.1 16 16
- 0.228 1 2 cbr 1000 ------- 2 1.0 9.1 16 16
r 0.229412 6 7 cbr 1000 ------- 2 1.0 9.1 3 3
+ 0.229412 7 8 cbr 1000 ------- 2 1.0 9.1 3 3
- 0.229412 7 8 cbr 1000 ------- 2 1.0 9.1 3 3
r 0.230706 4 5 cbr 1000 ------- 2 1.0 9.1 8 8
+ 0.230706 5 6 cbr 1000 ------- 2 1.0 9.1 8 8
- 0.230706 5 6 cbr 1000 ------- 2 1.0 9.1 8 8
r 0.231412 5 6 cbr 1000 ------- 2 1.0 9.1 5 5
+ 0.231412 6 7 cbr 1000 ------- 2 1.0 9.1 5 5
- 0.231412 6 7 cbr 1000 ------- 2 1.0 9.1 5 5
r 0.232706 3 4 cbr 1000 ------- 2 1.0 9.1 10 10
+ 0.232706 4 5 cbr 1000 ------- 2 1.0 9.1 10 10
- 0.232706 4 5 cbr 1000 ------- 2 1.0 9.1 10 10
r 0.234 1 2 cbr 1000 ------- 2 1.0 9.1 15 15
+ 0.234 2 3 cbr 1000 ------- 2 1.0 9.1 15 15
- 0.234 2 3 cbr 1000 ------- 2 1.0 9.1 15 15
r 0.234706 2 3 cbr 1000 ------- 2 1.0 9.1 12 12
+ 0.234706 3 4 cbr 1000 ------- 2 1.0 9.1 12 12
- 0.234706 3 4 cbr 1000 ------- 2 1.0 9.1 12 12
r 0.235412 7 8 cbr 1000 ------- 2 1.0 9.1 2 2
+ 0.235412 8 9 cbr 1000 ------- 2 1.0 9.1 2 2
- 0.235412 8 9 cbr 1000 ------- 2 1.0 9.1 2 2
+ 0.236 1 2 cbr 1000 ------- 2 1.0 9.1 17 17
- 0.236 1 2 cbr 1000 ------- 2 1.0 9.1 17 17
r 0.237412 6 7 cbr 1000 ------- 2 1.0 9.1 4 4
+ 0.237412 7 8 cbr 1000 ------- 2 1.0 9.1 4 4
- 0.237412 7 8 cbr 1000 ------- 2 1.0 9.1 4 4
r 0.238706 4 5 cbr 1000 ------- 2 1.0 9.1 9 9
+ 0.238706 5 6 cbr 1000 ------- 2 1.0 9.1 9 9
- 0.238706 5 6 cbr 1000 ------- 2 1.0 9.1 9 9
r 0.239412 5 6 cbr 1000 ------- 2 1.0 9.1 6 6
+ 0.239412 6 7 cbr 1000 ------- 2 1.0 9.1 6 6
- 0.239412 6 7 cbr 1000 ------- 2 1.0 9.1 6 6
r 0.240706 3 4 cbr 1000 ------- 2 1.0 9.1 11 11
+ 0.240706 4 5 cbr 1000 ------- 2 1.0 9.1 11 11
- 0.240706 4 5 cbr 1000 ------- 2 1.0 9.1 11 11
r 0.242 1 2 cbr 1000 ------- 2 1.0 9.1 16 16
+ 0.242 2 3 cbr 1000 ------- 2 1.0 9.1 16 16
- 0.242 2 3 cbr 1000 ------- 2 1.0 9.1 16 16
r 0.242706 2 3 cbr 1000 ------- 2 1.0 9.1 13 13
+ 0.242706 3 4 cbr 1000 ------- 2 1.0 9.1 13 13
- 0.242706 3 4 cbr 1000 ------- 2 1.0 9.1 13 13
r 0.243412 7 8 cbr 1000 ------- 2 1.0 9.1 3 3
+ 0.243412 8 9 cbr 1000 ------- 2 1.0 9.1 3 3
- 0.243412 8 9 cbr 1000 ------- 2 1.0 9.1 3 3
+ 0.244 1 2 cbr 1000 ------- 2 1.0 9.1 18 18
- 0.244 1 2 cbr 1000 ------- 2 1.0 9.1 18 18
r 0.244118 8 9 cbr 1000 ------- 2 1.0 9.1 0 0
r 0.245412 6 7 cbr 1000 ------- 2 1.0 9.1 5 5
+ 0.245412 7 8 cbr 1000 ------- 2 1.0 9.1 5 5
- 0.245412 7 8 cbr 1000 ------- 2 1.0 9.1 5 5
r 0.246706 4 5 cbr 1000 ------- 2 1.0 9.1 10 10
+ 0.246706 5 6 cbr 1000 ------- 2 1.0 9.1 10 10
- 0.246706 5 6 cbr 1000 ------- 2 1.0 9.1 10 10
r 0.247412 5 6 cbr 1000 ------- 2 1.0 9.1 7 7
+ 0.247412 6 7 cbr 1000 ------- 2 1.0 9.1 7 7
- 0.247412 6 7 cbr 1000 ------- 2 1.0 9.1 7 7
r 0.248706 3 4 cbr 1000 ------- 2 1.0 9.1 12 12
+ 0.248706 4 5 cbr 1000 ------- 2 1.0 9.1 12 12
- 0.248706 4 5 cbr 1000 ------- 2 1.0 9.1 12 12
r 0.25 1 2 cbr 1000 ------- 2 1.0 9.1 17 17
+ 0.25 2 3 cbr 1000 ------- 2 1.0 9.1 17 17
- 0.25 2 3 cbr 1000 ------- 2 1.0 9.1 17 17
r 0.250706 2 3 cbr 1000 ------- 2 1.0 9.1 14 14
+ 0.250706 3 4 cbr 1000 ------- 2 1.0 9.1 14 14
- 0.250706 3 4 cbr 1000 ------- 2 1.0 9.1 14 14
r 0.251412 7 8 cbr 1000 ------- 2 1.0 9.1 4 4
+ 0.251412 8 9 cbr 1000 ------- 2 1.0 9.1 4 4
- 0.251412 8 9 cbr 1000 ------- 2 1.0 9.1 4 4
+ 0.252 1 2 cbr 1000 ------- 2 1.0 9.1 19 19
- 0.252 1 2 cbr 1000 ------- 2 1.0 9.1 19 19
r 0.252118 8 9 cbr 1000 ------- 2 1.0 9.1 1 1
r 0.253412 6 7 cbr 1000 ------- 2 1.0 9.1 6 6
+ 0.253412 7 8 cbr 1000 ------- 2 1.0 9.1 6 6
- 0.253412 7 8 cbr 1000 ------- 2 1.0 9.1 6 6
r 0.254706 4 5 cbr 1000 ------- 2 1.0 9.1 11 11
+ 0.254706 5 6 cbr 1000 ------- 2 1.0 9.1 11 11
- 0.254706 5 6 cbr 1000 ------- 2 1.0 9.1 11 11
r 0.255412 5 6 cbr 1000 ------- 2 1.0 9.1 8 8
+ 0.255412 6 7 cbr 1000 ------- 2 1.0 9.1 8 8
- 0.255412 6 7 cbr 1000 ------- 2 1.0 9.1 8 8
r 0.256706 3 4 cbr 1000 ------- 2 1.0 9.1 13 13
+ 0.256706 4 5 cbr 1000 ------- 2 1.0 9.1 13 13
- 0.256706 4 5 cbr 1000 ------- 2 1.0 9.1 13 13
r 0.258 1 2 cbr 1000 ------- 2 1.0 9.1 18 18
+ 0.258 2 3 cbr 1000 ------- 2 1.0 9.1 18 18
- 0.258 2 3 cbr 1000 ------- 2 1.0 9.1 18 18
r 0.258706 2 3 cbr 1000 ------- 2 1.0 9.1 15 15
+ 0.258706 3 4 cbr 1000 ------- 2 1.0 9.1 15 15
- 0.258706 3 4 cbr 1000 ------- 2 1.0 9.1 15 15
r 0.259412 7 8 cbr 1000 ------- 2 1.0 9.1 5 5
+ 0.259412 8 9 cbr 1000 ------- 2 1.0 9.1 5 5
- 0.259412 8 9 cbr 1000 ------- 2 1.0 9.1 5 5
+ 0.26 1 2 cbr 1000 ------- 2 1.0 9.1 20 20
- 0.26 1 2 cbr 1000 ------- 2 1.0 9.1 20 20
r 0.260118 8 9 cbr 1000 ------- 2 1.0 9.1 2 2
r 0.261412 6 7 cbr 1000 ------- 2 1.0 9.1 7 7
+ 0.261412 7 8 cbr 1000 ------- 2 1.0 9.1 7 7
- 0.261412 7 8 cbr 1000 ------- 2 1.0 9.1 7 7
r 0.262706 4 5 cbr 1000 ------- 2 1.0 9.1 12 12
+ 0.262706 5 6 cbr 1000 ------- 2 1.0 9.1 12 12
- 0.262706 5 6 cbr 1000 ------- 2 1.0 9.1 12 12
r 0.263412 5 6 cbr 1000 ------- 2 1.0 9.1 9 9
+ 0.263412 6 7 cbr 1000 ------- 2 1.0 9.1 9 9
- 0.263412 6 7 cbr 1000 ------- 2 1.0 9.1 9 9
r 0.264706 3 4 cbr 1000 ------- 2 1.0 9.1 14 14
+ 0.264706 4 5 cbr 1000 ------- 2 1.0 9.1 14 14
- 0.264706 4 5 cbr 1000 ------- 2 1.0 9.1 14 14
r 0.266 1 2 cbr 1000 ------- 2 1.0 9.1 19 19
+ 0.266 2 3 cbr 1000 ------- 2 1.0 9.1 19 19
- 0.266 2 3 cbr 1000 ------- 2 1.0 9.1 19 19
r 0.266706 2 3 cbr 1000 ------- 2 1.0 9.1 16 16
+ 0.266706 3 4 cbr 1000 ------- 2 1.0 9.1 16 16
- 0.266706 3 4 cbr 1000 ------- 2 1.0 9.1 16 16
r 0.267412 7 8 cbr 1000 ------- 2 1.0 9.1 6 6
+ 0.267412 8 9 cbr 1000 ------- 2 1.0 9.1 6 6
- 0.267412 8 9 cbr 1000 ------- 2 1.0 9.1 6 6
+ 0.268 1 2 cbr 1000 ------- 2 1.0 9.1 21 21
- 0.268 1 2 cbr 1000 ------- 2 1.0 9.1 21 21
r 0.268118 8 9 cbr 1000 ------- 2 1.0 9.1 3 3
r 0.269412 6 7 cbr 1000 ------- 2 1.0 9.1 8 8
+ 0.269412 7 8 cbr 1000 ------- 2 1.0 9.1 8 8
- 0.269412 7 8 cbr 1000 ------- 2 1.0 9.1 8 8
r 0.270706 4 5 cbr 1000 ------- 2 1.0 9.1 13 13
+ 0.270706 5 6 cbr 1000 ------- 2 1.0 9.1 13 13
- 0.270706 5 6 cbr 1000 ------- 2 1.0 9.1 13 13
r 0.271412 5 6 cbr 1000 ------- 2 1.0 9.1 10 10
+ 0.271412 6 7 cbr 1000 ------- 2 1.0 9.1 10 10
- 0.271412 6 7 cbr 1000 ------- 2 1.0 9.1 10 10
r 0.272706 3 4 cbr 1000 ------- 2 1.0 9.1 15 15
+ 0.272706 4 5 cbr 1000 ------- 2 1.0 9.1 15 15
- 0.272706 4 5 cbr 1000 ------- 2 1.0 9.1 15 15
r 0.274 1 2 cbr 1000 ------- 2 1.0 9.1 20 20
+ 0.274 2 3 cbr 1000 ------- 2 1.0 9.1 20 20
- 0.274 2 3 cbr 1000 ------- 2 1.0 9.1 20 20
r 0.274706 2 3 cbr 1000 ------- 2 1.0 9.1 17 17
+ 0.274706 3 4 cbr 1000 ------- 2 1.0 9.1 17 17
- 0.274706 3 4 cbr 1000 ------- 2 1.0 9.1 17 17
r 0.275412 7 8 cbr 1000 ------- 2 1.0 9.1 7 7
+ 0.275412 8 9 cbr 1000 ------- 2 1.0 9.1 7 7
- 0.275412 8 9 cbr 1000 ------- 2 1.0 9.1 7 7
+ 0.276 1 2 cbr 1000 ------- 2 1.0 9.1 22 22
- 0.276 1 2 cbr 1000 ------- 2 1.0 9.1 22 22
r 0.276118 8 9 cbr 1000 ------- 2 1.0 9.1 4 4
r 0.277412 6 7 cbr 1000 ------- 2 1.0 9.1 9 9
+ 0.277412 7 8 cbr 1000 ------- 2 1.0 9.1 9 9
- 0.277412 7 8 cbr 1000 ------- 2 1.0 9.1 9 9
r 0.278706 4 5 cbr 1000 ------- 2 1.0 9.1 14 14
+ 0.278706 5 6 cbr 1000 ------- 2 1.0 9.1 14 14
- 0.278706 5 6 cbr 1000 ------- 2 1.0 9.1 14 14
r 0.279412 5 6 cbr 1000 ------- 2 1.0 9.1 11 11
+ 0.279412 6 7 cbr 1000 ------- 2 1.0 9.1 11 11
- 0.279412 6 7 cbr 1000 ------- 2 1.0 9.1 11 11
r 0.280706 3 4 cbr 1000 ------- 2 1.0 9.1 16 16
+ 0.280706 4 5 cbr 1000 ------- 2 1.0 9.1 16 16
- 0.280706 4 5 cbr 1000 ------- 2 1.0 9.1 16 16
r 0.282 1 2 cbr 1000 ------- 2 1.0 9.1 21 21
+ 0.282 2 3 cbr 1000 ------- 2 1.0 9.1 21 21
- 0.282 2 3 cbr 1000 ------- 2 1.0 9.1 21 21
r 0.282706 2 3 cbr 1000 ------- 2 1.0 9.1 18 18
+ 0.282706 3 4 cbr 1000 ------- 2 1.0 9.1 18 18
- 0.282706 3 4 cbr 1000 ------- 2 1.0 9.1 18 18
r 0.283412 7 8 cbr 1000 ------- 2 1.0 9.1 8 8
+ 0.283412 8 9 cbr 1000 ------- 2 1.0 9.1 8 8
- 0.283412 8 9 cbr 1000 ------- 2 1.0 9.1 8 8
+ 0.284 1 2 cbr 1000 ------- 2 1.0 9.1 23 23
- 0.284 1 2 cbr 1000 ------- 2 1.0 9.1 23 23
r 0.284118 8 9 cbr 1000 ------- 2 1.0 9.1 5 5
r 0.285412 6 7 cbr 1000 ------- 2 1.0 9.1 10 10
+ 0.285412 7 8 cbr 1000 ------- 2 1.0 9.1 10 10
- 0.285412 7 8 cbr 1000 ------- 2 1.0 9.1 10 10
r 0.286706 4 5 cbr 1000 ------- 2 1.0 9.1 15 15
+ 0.286706 5 6 cbr 1000 ------- 2 1.0 9.1 15 15
- 0.286706 5 6 cbr 1000 ------- 2 1.0 9.1 15 15
r 0.287412 5 6 cbr 1000 ------- 2 1.0 9.1 12 12
+ 0.287412 6 7 cbr 1000 ------- 2 1.0 9.1 12 12
- 0.287412 6 7 cbr 1000 ------- 2 1.0 9.1 12 12
r 0.288706 3 4 cbr 1000 ------- 2 1.0 9.1 17 17
+ 0.288706 4 5 cbr 1000 ------- 2 1.0 9.1 17 17
- 0.288706 4 5 cbr 1000 ------- 2 1.0 9.1 17 17
r 0.29 1 2 cbr 1000 ------- 2 1.0 9.1 22 22
+ 0.29 2 3 cbr 1000 ------- 2 1.0 9.1 22 22
- 0.29 2 3 cbr 1000 ------- 2 1.0 9.1 22 22
r 0.290706 2 3 cbr 1000 ------- 2 1.0 9.1 19 19
+ 0.290706 3 4 cbr 1000 ------- 2 1.0 9.1 19 19
- 0.290706 3 4 cbr 1000 ------- 2 1.0 9.1 19 19
r 0.291412 7 8 cbr 1000 ------- 2 1.0 9.1 9 9
+ 0.291412 8 9 cbr 1000 ------- 2 1.0 9.1 9 9
- 0.291412 8 9 cbr 1000 ------- 2 1.0 9.1 9 9
+ 0.292 1 2 cbr 1000 ------- 2 1.0 9.1 24 24
- 0.292 1 2 cbr 1000 ------- 2 1.0 9.1 24 24
r 0.292118 8 9 cbr 1000 ------- 2 1.0 9.1 6 6
r 0.293412 6 7 cbr 1000 ------- 2 1.0 9.1 11 11
+ 0.293412 7 8 cbr 1000 ------- 2 1.0 9.1 11 11
- 0.293412 7 8 cbr 1000 ------- 2 1.0 9.1 11 11
r 0.294706 4 5 cbr 1000 ------- 2 1.0 9.1 16 16
+ 0.294706 5 6 cbr 1000 ------- 2 1.0 9.1 16 16
- 0.294706 5 6 cbr 1000 ------- 2 1.0 9.1 16 16
r 0.295412 5 6 cbr 1000 ------- 2 1.0 9.1 13 13
+ 0.295412 6 7 cbr 1000 ------- 2 1.0 9.1 13 13
- 0.295412 6 7 cbr 1000 ------- 2 1.0 9.1 13 13
r 0.296706 3 4 cbr 1000 ------- 2 1.0 9.1 18 18
+ 0.296706 4 5 cbr 1000 ------- 2 1.0 9.1 18 18
- 0.296706 4 5 cbr 1000 ------- 2 1.0 9.1 18 18
r 0.298 1 2 cbr 1000 ------- 2 1.0 9.1 23 23
+ 0.298 2 3 cbr 1000 ------- 2 1.0 9.1 23 23
- 0.298 2 3 cbr 1000 ------- 2 1.0 9.1 23 23
r 0.298706 2 3 cbr 1000 ------- 2 1.0 9.1 20 20
+ 0.298706 3 4 cbr 1000 ------- 2 1.0 9.1 20 20
- 0.298706 3 4 cbr 1000 ------- 2 1.0 9.1 20 20
r 0.299412 7 8 cbr 1000 ------- 2 1.0 9.1 10 10
+ 0.299412 8 9 cbr 1000 ------- 2 1.0 9.1 10 10
- 0.299412 8 9 cbr 1000 ------- 2 1.0 9.1 10 10
+ 0.3 1 2 cbr 1000 ------- 2 1.0 9.1 25 25
- 0.3 1 2 cbr 1000 ------- 2 1.0 9.1 25 25
r 0.300118 8 9 cbr 1000 ------- 2 1.0 9.1 7 7
r 0.301412 6 7 cbr 1000 ------- 2 1.0 9.1 12 12
+ 0.301412 7 8 cbr 1000 ------- 2 1.0 9.1 12 12
- 0.301412 7 8 cbr 1000 ------- 2 1.0 9.1 12 12
r 0.302706 4 5 cbr 1000 ------- 2 1.0 9.1 17 17
+ 0.302706 5 6 cbr 1000 ------- 2 1.0 9.1 17 17
- 0.302706 5 6 cbr 1000 ------- 2 1.0 9.1 17 17
r 0.303412 5 6 cbr 1000 ------- 2 1.0 9.1 14 14
+ 0.303412 6 7 cbr 1000 ------- 2 1.0 9.1 14 14
- 0.303412 6 7 cbr 1000 ------- 2 1.0 9.1 14 14
r 0.304706 3 4 cbr 1000 ------- 2 1.0 9.1 19 19
+ 0.304706 4 5 cbr 1000 ------- 2 1.0 9.1 19 19
- 0.304706 4 5 cbr 1000 ------- 2 1.0 9.1 19 19
r 0.306 1 2 cbr 1000 ------- 2 1.0 9.1 24 24
+ 0.306 2 3 cbr 1000 ------- 2 1.0 9.1 24 24
- 0.306 2 3 cbr 1000 ------- 2 1.0 9.1 24 24
r 0.306706 2 3 cbr 1000 ------- 2 1.0 9.1 21 21
+ 0.306706 3 4 cbr 1000 ------- 2 1.0 9.1 21 21
- 0.306706 3 4 cbr 1000 ------- 2 1.0 9.1 21 21
r 0.307412 7 8 cbr 1000 ------- 2 1.0 9.1 11 11
+ 0.307412 8 9 cbr 1000 ------- 2 1.0 9.1 11 11
- 0.307412 8 9 cbr 1000 ------- 2 1.0 9.1 11 11
+ 0.308 1 2 cbr 1000 ------- 2 1.0 9.1 26 26
- 0.308 1 2 cbr 1000 ------- 2 1.0 9.1 26 26
r 0.308118 8 9 cbr 1000 ------- 2 1.0 9.1 8 8
r 0.309412 6 7 cbr 1000 ------- 2 1.0 9.1 13 13
+ 0.309412 7 8 cbr 1000 ------- 2 1.0 9.1 13 13
- 0.309412 7 8 cbr 1000 ------- 2 1.0 9.1 13 13
r 0.310706 4 5 cbr 1000 ------- 2 1.0 9.1 18 18
+ 0.310706 5 6 cbr 1000 ------- 2 1.0 9.1 18 18
- 0.310706 5 6 cbr 1000 ------- 2 1.0 9.1 18 18
r 0.311412 5 6 cbr 1000 ------- 2 1.0 9.1 15 15
+ 0.311412 6 7 cbr 1000 ------- 2 1.0 9.1 15 15
- 0.311412 6 7 cbr 1000 ------- 2 1.0 9.1 15 15
r 0.312706 3 4 cbr 1000 ------- 2 1.0 9.1 20 20
+ 0.312706 4 5 cbr 1000 ------- 2 1.0 9.1 20 20
- 0.312706 4 5 cbr 1000 ------- 2 1.0 9.1 20 20
r 0.314 1 2 cbr 1000 ------- 2 1.0 9.1 25 25
+ 0.314 2 3 cbr 1000 ------- 2 1.0 9.1 25 25
- 0.314 2 3 cbr 1000 ------- 2 1.0 9.1 25 25
r 0.314706 2 3 cbr 1000 ------- 2 1.0 9.1 22 22
+ 0.314706 3 4 cbr 1000 ------- 2 1.0 9.1 22 22
- 0.314706 3 4 cbr 1000 ------- 2 1.0 9.1 22 22
r 0.315412 7 8 cbr 1000 ------- 2 1.0 9.1 12 12
+ 0.315412 8 9 cbr 1000 ------- 2 1.0 9.1 12 12
- 0.315412 8 9 cbr 1000 ------- 2 1.0 9.1 12 12
+ 0.316 1 2 cbr 1000 ------- 2 1.0 9.1 27 27
- 0.316 1 2 cbr 1000 ------- 2 1.0 9.1 27 27
r 0.316118 8 9 cbr 1000 ------- 2 1.0 9.1 9 9
r 0.317412 6 7 cbr 1000 ------- 2 1.0 9.1 14 14
+ 0.317412 7 8 cbr 1000 ------- 2 1.0 9.1 14 14
- 0.317412 7 8 cbr 1000 ------- 2 1.0 9.1 14 14
r 0.318706 4 5 cbr 1000 ------- 2 1.0 9.1 19 19
+ 0.318706 5 6 cbr 1000 ------- 2 1.0 9.1 19 19
- 0.318706 5 6 cbr 1000 ------- 2 1.0 9.1 19 19
r 0.319412 5 6 cbr 1000 ------- 2 1.0 9.1 16 16
+ 0.319412 6 7 cbr 1000 ------- 2 1.0 9.1 16 16
- 0.319412 6 7 cbr 1000 ------- 2 1.0 9.1 16 16
r 0.320706 3 4 cbr 1000 ------- 2 1.0 9.1 21 21
+ 0.320706 4 5 cbr 1000 ------- 2 1.0 9.1 21 21
- 0.320706 4 5 cbr 1000 ------- 2 1.0 9.1 21 21
r 0.322 1 2 cbr 1000 ------- 2 1.0 9.1 26 26
+ 0.322 2 3 cbr 1000 ------- 2 1.0 9.1 26 26
- 0.322 2 3 cbr 1000 ------- 2 1.0 9.1 26 26
r 0.322706 2 3 cbr 1000 ------- 2 1.0 9.1 23 23
+ 0.322706 3 4 cbr 1000 ------- 2 1.0 9.1 23 23
- 0.322706 3 4 cbr 1000 ------- 2 1.0 9.1 23 23
r 0.323412 7 8 cbr 1000 ------- 2 1.0 9.1 13 13
+ 0.323412 8 9 cbr 1000 ------- 2 1.0 9.1 13 13
- 0.323412 8 9 cbr 1000 ------- 2 1.0 9.1 13 13
+ 0.324 1 2 cbr 1000 ------- 2 1.0 9.1 28 28
- 0.324 1 2 cbr 1000 ------- 2 1.0 9.1 28 28
r 0.324118 8 9 cbr 1000 ------- 2 1.0 9.1 10 10
r 0.325412 6 7 cbr 1000 ------- 2 1.0 9.1 15 15
+ 0.325412 7 8 cbr 1000 ------- 2 1.0 9.1 15 15
- 0.325412 7 8 cbr 1000 ------- 2 1.0 9.1 15 15
r 0.326706 4 5 cbr 1000 ------- 2 1.0 9.1 20 20
+ 0.326706 5 6 cbr 1000 ------- 2 1.0 9.1 20 20
- 0.326706 5 6 cbr 1000 ------- 2 1.0 9.1 20 20
r 0.327412 5 6 cbr 1000 ------- 2 1.0 9.1 17 17
+ 0.327412 6 7 cbr 1000 ------- 2 1.0 9.1 17 17
- 0.327412 6 7 cbr 1000 ------- 2 1.0 9.1 17 17
r 0.328706 3 4 cbr 1000 ------- 2 1.0 9.1 22 22
+ 0.328706 4 5 cbr 1000 ------- 2 1.0 9.1 22 22
- 0.328706 4 5 cbr 1000 ------- 2 1.0 9.1 22 22
r 0.33 1 2 cbr 1000 ------- 2 1.0 9.1 27 27
+ 0.33 2 3 cbr 1000 ------- 2 1.0 9.1 27 27
- 0.33 2 3 cbr 1000 ------- 2 1.0 9.1 27 27
r 0.330706 2 3 cbr 1000 ------- 2 1.0 9.1 24 24
+ 0.330706 3 4 cbr 1000 ------- 2 1.0 9.1 24 24
- 0.330706 3 4 cbr 1000 ------- 2 1.0 9.1 24 24
r 0.331412 7 8 cbr 1000 ------- 2 1.0 9.1 14 14
+ 0.331412 8 9 cbr 1000 ------- 2 1.0 9.1 14 14
- 0.331412 8 9 cbr 1000 ------- 2 1.0 9.1 14 14
+ 0.332 1 2 cbr 1000 ------- 2 1.0 9.1 29 29
- 0.332 1 2 cbr 1000 ------- 2 1.0 9.1 29 29
r 0.332118 8 9 cbr 1000 ------- 2 1.0 9.1 11 11
r 0.333412 6 7 cbr 1000 ------- 2 1.0 9.1 16 16
+ 0.333412 7 8 cbr 1000 ------- 2 1.0 9.1 16 16
- 0.333412 7 8 cbr 1000 ------- 2 1.0 9.1 16 16
r 0.334706 4 5 cbr 1000 ------- 2 1.0 9.1 21 21
+ 0.334706 5 6 cbr 1000 ------- 2 1.0 9.1 21 21
- 0.334706 5 6 cbr 1000 ------- 2 1.0 9.1 21 21
r 0.335412 5 6 cbr 1000 ------- 2 1.0 9.1 18 18
+ 0.335412 6 7 cbr 1000 ------- 2 1.0 9.1 18 18
- 0.335412 6 7 cbr 1000 ------- 2 1.0 9.1 18 18
r 0.336706 3 4 cbr 1000 ------- 2 1.0 9.1 23 23
+ 0.336706 4 5 cbr 1000 ------- 2 1.0 9.1 23 23
- 0.336706 4 5 cbr 1000 ------- 2 1.0 9.1 23 23
r 0.338 1 2 cbr 1000 ------- 2 1.0 9.1 28 28
+ 0.338 2 3 cbr 1000 ------- 2 1.0 9.1 28 28
- 0.338 2 3 cbr 1000 ------- 2 1.0 9.1 28 28
r 0.338706 2 3 cbr 1000 ------- 2 1.0 9.1 25 25
+ 0.338706 3 4 cbr 1000 ------- 2 1.0 9.1 25 25
- 0.338706 3 4 cbr 1000 ------- 2 1.0 9.1 25 25
r 0.339412 7 8 cbr 1000 ------- 2 1.0 9.1 15 15
+ 0.339412 8 9 cbr 1000 ------- 2 1.0 9.1 15 15
- 0.339412 8 9 cbr 1000 ------- 2 1.0 9.1 15 15
+ 0.34 1 2 cbr 1000 ------- 2 1.0 9.1 30 30
- 0.34 1 2 cbr 1000 ------- 2 1.0 9.1 30 30
r 0.340118 8 9 cbr 1000 ------- 2 1.0 9.1 12 12
r 0.341412 6 7 cbr 1000 ------- 2 1.0 9.1 17 17
+ 0.341412 7 8 cbr 1000 ------- 2 1.0 9.1 17 17
- 0.341412 7 8 cbr 1000 ------- 2 1.0 9.1 17 17
r 0.342706 4 5 cbr 1000 ------- 2 1.0 9.1 22 22
+ 0.342706 5 6 cbr 1000 ------- 2 1.0 9.1 22 22
- 0.342706 5 6 cbr 1000 ------- 2 1.0 9.1 22 22
r 0.343412 5 6 cbr 1000 ------- 2 1.0 9.1 19 19
+ 0.343412 6 7 cbr 1000 ------- 2 1.0 9.1 19 19
- 0.343412 6 7 cbr 1000 ------- 2 1.0 9.1 19 19
r 0.344706 3 4 cbr 1000 ------- 2 1.0 9.1 24 24
+ 0.344706 4 5 cbr 1000 ------- 2 1.0 9.1 24 24
- 0.344706 4 5 cbr 1000 ------- 2 1.0 9.1 24 24
r 0.346 1 2 cbr 1000 ------- 2 1.0 9.1 29 29
+ 0.346 2 3 cbr 1000 ------- 2 1.0 9.1 29 29
- 0.346 2 3 cbr 1000 ------- 2 1.0 9.1 29 29
r 0.346706 2 3 cbr 1000 ------- 2 1.0 9.1 26 26
+ 0.346706 3 4 cbr 1000 ------- 2 1.0 9.1 26 26
- 0.346706 3 4 cbr 1000 ------- 2 1.0 9.1 26 26
r 0.347412 7 8 cbr 1000 ------- 2 1.0 9.1 16 16
+ 0.347412 8 9 cbr 1000 ------- 2 1.0 9.1 16 16
- 0.347412 8 9 cbr 1000 ------- 2 1.0 9.1 16 16
+ 0.348 1 2 cbr 1000 ------- 2 1.0 9.1 31 31
- 0.348 1 2 cbr 1000 ------- 2 1.0 9.1 31 31
r 0.348118 8 9 cbr 1000 ------- 2 1.0 9.1 13 13
r 0.349412 6 7 cbr 1000 ------- 2 1.0 9.1 18 18
+ 0.349412 7 8 cbr 1000 ------- 2 1.0 9.1 18 18
- 0.349412 7 8 cbr 1000 ------- 2 1.0 9.1 18 18
r 0.350706 4 5 cbr 1000 ------- 2 1.0 9.1 23 23
+ 0.350706 5 6 cbr 1000 ------- 2 1.0 9.1 23 23
- 0.350706 5 6 cbr 1000 ------- 2 1.0 9.1 23 23
r 0.351412 5 6 cbr 1000 ------- 2 1.0 9.1 20 20
+ 0.351412 6 7 cbr 1000 ------- 2 1.0 9.1 20 20
- 0.351412 6 7 cbr 1000 ------- 2 1.0 9.1 20 20
r 0.352706 3 4 cbr 1000 ------- 2 1.0 9.1 25 25
+ 0.352706 4 5 cbr 1000 ------- 2 1.0 9.1 25 25
- 0.352706 4 5 cbr 1000 ------- 2 1.0 9.1 25 25
r 0.354 1 2 cbr 1000 ------- 2 1.0 9.1 30 30
+ 0.354 2 3 cbr 1000 ------- 2 1.0 9.1 30 30
- 0.354 2 3 cbr 1000 ------- 2 1.0 9.1 30 30
r 0.354706 2 3 cbr 1000 ------- 2 1.0 9.1 27 27
+ 0.354706 3 4 cbr 1000 ------- 2 1.0 9.1 27 27
- 0.354706 3 4 cbr 1000 ------- 2 1.0 9.1 27 27
r 0.355412 7 8 cbr 1000 ------- 2 1.0 9.1 17 17
+ 0.355412 8 9 cbr 1000 ------- 2 1.0 9.1 17 17
- 0.355412 8 9 cbr 1000 ------- 2 1.0 9.1 17 17
+ 0.356 1 2 cbr 1000 ------- 2 1.0 9.1 32 32
- 0.356 1 2 cbr 1000 ------- 2 1.0 9.1 32 32
r 0.356118 8 9 cbr 1000 ------- 2 1.0 9.1 14 14
r 0.357412 6 7 cbr 1000 ------- 2 1.0 9.1 19 19
+ 0.357412 7 8 cbr 1000 ------- 2 1.0 9.1 19 19
- 0.357412 7 8 cbr 1000 ------- 2 1.0 9.1 19 19
r 0.358706 4 5 cbr 1000 ------- 2 1.0 9.1 24 24
+ 0.358706 5 6 cbr 1000 ------- 2 1.0 9.1 24 24
- 0.358706 5 6 cbr 1000 ------- 2 1.0 9.1 24 24
r 0.359412 5 6 cbr 1000 ------- 2 1.0 9.1 21 21
+ 0.359412 6 7 cbr 1000 ------- 2 1.0 9.1 21 21
- 0.359412 6 7 cbr 1000 ------- 2 1.0 9.1 21 21
r 0.360706 3 4 cbr 1000 ------- 2 1.0 9.1 26 26
+ 0.360706 4 5 cbr 1000 ------- 2 1.0 9.1 26 26
- 0.360706 4 5 cbr 1000 ------- 2 1.0 9.1 26 26
r 0.362 1 2 cbr 1000 ------- 2 1.0 9.1 31 31
+ 0.362 2 3 cbr 1000 ------- 2 1.0 9.1 31 31
- 0.362 2 3 cbr 1000 ------- 2 1.0 9.1 31 31
r 0.362706 2 3 cbr 1000 ------- 2 1.0 9.1 28 28
+ 0.362706 3 4 cbr 1000 ------- 2 1.0 9.1 28 28
- 0.362706 3 4 cbr 1000 ------- 2 1.0 9.1 28 28
r 0.363412 7 8 cbr 1000 ------- 2 1.0 9.1 18 18
+ 0.363412 8 9 cbr 1000 ------- 2 1.0 9.1 18 18
- 0.363412 8 9 cbr 1000 ------- 2 1.0 9.1 18 18
+ 0.364 1 2 cbr 1000 ------- 2 1.0 9.1 33 33
- 0.364 1 2 cbr 1000 ------- 2 1.0 9.1 33 33
r 0.364118 8 9 cbr 1000 ------- 2 1.0 9.1 15 15
r 0.365412 6 7 cbr 1000 ------- 2 1.0 9.1 20 20
+ 0.365412 7 8 cbr 1000 ------- 2 1.0 9.1 20 20
- 0.365412 7 8 cbr 1000 ------- 2 1.0 9.1 20 20
r 0.366706 4 5 cbr 1000 ------- 2 1.0 9.1 25 25
+ 0.366706 5 6 cbr 1000 ------- 2 1.0 9.1 25 25
- 0.366706 5 6 cbr 1000 ------- 2 1.0 9.1 25 25
r 0.367412 5 6 cbr 1000 ------- 2 1.0 9.1 22 22
+ 0.367412 6 7 cbr 1000 ------- 2 1.0 9.1 22 22
- 0.367412 6 7 cbr 1000 ------- 2 1.0 9.1 22 22
r 0.368706 3 4 cbr 1000 ------- 2 1.0 9.1 27 27
+ 0.368706 4 5 cbr 1000 ------- 2 1.0 9.1 27 27
- 0.368706 4 5 cbr 1000 ------- 2 1.0 9.1 27 27
r 0.37 1 2 cbr 1000 ------- 2 1.0 9.1 32 32
+ 0.37 2 3 cbr 1000 ------- 2 1.0 9.1 32 32
- 0.37 2 3 cbr 1000 ------- 2 1.0 9.1 32 32
r 0.370706 2 3 cbr 1000 ------- 2 1.0 9.1 29 29
+ 0.370706 3 4 cbr 1000 ------- 2 1.0 9.1 29 29
- 0.370706 3 4 cbr 1000 ------- 2 1.0 9.1 29 29
r 0.371412 7 8 cbr 1000 ------- 2 1.0 9.1 19 19
+ 0.371412 8 9 cbr 1000 ------- 2 1.0 9.1 19 19
- 0.371412 8 9 cbr 1000 ------- 2 1.0 9.1 19 19
+ 0.372 1 2 cbr 1000 ------- 2 1.0 9.1 34 34
- 0.372 1 2 cbr 1000 ------- 2 1.0 9.1 34 34
r 0.372118 8 9 cbr 1000 ------- 2 1.0 9.1 16 16
r 0.373412 6 7 cbr 1000 ------- 2 1.0 9.1 21 21
+ 0.373412 7 8 cbr 1000 ------- 2 1.0 9.1 21 21
- 0.373412 7 8 cbr 1000 ------- 2 1.0 9.1 21 21
r 0.374706 4 5 cbr 1000 ------- 2 1.0 9.1 26 26
+ 0.374706 5 6 cbr 1000 ------- 2 1.0 9.1 26 26
- 0.374706 5 6 cbr 1000 ------- 2 1.0 9.1 26 26
r 0.375412 5 6 cbr 1000 ------- 2 1.0 9.1 23 23
+ 0.375412 6 7 cbr 1000 ------- 2 1.0 9.1 23 23
- 0.375412 6 7 cbr 1000 ------- 2 1.0 9.1 23 23
r 0.376706 3 4 cbr 1000 ------- 2 1.0 9.1 28 28
+ 0.376706 4 5 cbr 1000 ------- 2 1.0 9.1 28 28
- 0.376706 4 5 cbr 1000 ------- 2 1.0 9.1 28 28
r 0.378 1 2 cbr 1000 ------- 2 1.0 9.1 33 33
+ 0.378 2 3 cbr 1000 ------- 2 1.0 9.1 33 33
- 0.378 2 3 cbr 1000 ------- 2 1.0 9.1 33 33
r 0.378706 2 3 cbr 1000 ------- 2 1.0 9.1 30 30