V -t * -v 1.0a5 -a 0
A -t * -n 1 -p 0 -o 0x7fffffff -c 30 -a 1
A -t * -h 1 -m 1073741823 -s 0
c -t * -i 1 -n Blue
c -t * -i 2 -n Red
n -t * -a 8 -s 8 -S UP -v circle -c black -i black
n -t * -a 4 -s 4 -S UP -v circle -c black -i black
n -t * -a 0 -s 0 -S UP -v circle -c black -i black
n -t * -a 9 -s 9 -S UP -v circle -c black -i black
n -t * -a 5 -s 5 -S UP -v circle -c black -i black
n -t * -a 1 -s 1 -S UP -v circle -c black -i black
n -t * -a 6 -s 6 -S UP -v circle -c black -i black
n -t * -a 2 -s 2 -S UP -v circle -c black -i black
n -t * -a 7 -s 7 -S UP -v circle -c black -i black
n -t * -a 3 -s 3 -S UP -v circle -c black -i black
l -t * -s 3 -d 4 -S UP -r 2000000 -D 0.01 -c black
l -t * -s 4 -d 5 -S UP -r 2000000 -D 0.01 -c black
l -t * -s 5 -d 6 -S UP -r 1700000 -D 0.02 -c black
l -t * -s 7 -d 8 -S UP -r 2000000 -D 0.01 -c black
l -t * -s 8 -d 9 -S UP -r 1700000 -D 0.02 -c black
l -t * -s 6 -d 7 -S UP -r 2000000 -D 0.01 -c black
l -t * -s 0 -d 2 -S UP -r 2000000 -D 0.01 -c black -o right-down
l -t * -s 1 -d 2 -S UP -r 2000000 -D 0.01 -c black -o right-up
l -t * -s 2 -d 3 -S UP -r 1700000 -D 0.02 -c black -o right
q -t * -s 2 -d 3 -a 0.5
q -t * -s 3 -d 2 -a 0.5
+ -t 0.1 -s 1 -d 2 -p cbr -e 1000 -c 2 -i 0 -a 2 -x {1.0 9.1 0 ------- null}
- -t 0.1 -s 1 -d 2 -p cbr -e 1000 -c 2 -i 0 -a 2 -x {1.0 9.1 0 ------- null}
h -t 0.1 -s 1 -d 2 -p cbr -e 1000 -c 2 -i 0 -a 2 -x {1.0 9.1 -1 ------- null}
+ -t 0.108 -s 1 -d 2 -p cbr -e 1000 -c 2 -i 1 -a 2 -x {1.0 9.1 1 ------- null}
- -t 0.108 -s 1 -d 2 -p cbr -e 1000 -c 2 -i 1 -a 2 -x {1.0 9.1 1 ------- null}
h -t 0.108 -s 1 -d 2 -p cbr -e 1000 -c 2 -i 1 -a 2 -x {1.0 9.1 -1 ------- null}
r -t 0.114 -s 1 -d 2 -p cbr -e 1000 -c 2 -i 0 -a 2 -x {1.0 9.1 0 ------- null}
+ -t 0.114 -s 2 -d 3 -p cbr -e 1000 -c 2 -i 0 -a 2 -x {1.0 9.1 0 ------- null}
- -t 0.114 -s 2 -d 3 -p cbr -e 1000 -c 2 -i 0 -a 2 -x {1.0 9.1 0 ------- null}
h -t 0.114 -s 2 -d 3 -p cbr -e 1000 -c 2 -i 0 -a 2 -x {1.0 9.1 -1 ------- null}
+ -t 0.116 -s 1 -d 2 -p cbr -e 1000 -c 2 -i 2 -a 2 -x {1.0 9.1 2 ------- null}
- -t 0.116 -s 1 -d 2 -p cbr -e 1000 -c 2 -i 2 -a 2 -x {1.0 9.1 2 ------- null}
h -t 0.116 -s 1 -d 2 -p cbr -e 1000 -c 2 -i 2 -a 2 -x {1.0 9.1 -1 ------- null}
r -t 0.122 -s 1 -d 2 -p cbr -e 1000 -c 2 -i 1 -a 2 -x {1.0 9.1 1 ------- null}
+ -t 0.122 -s 2 -d 3 -p cbr -e 1000 -c 2 -i 1 -a 2 -x {1.0 9.1 1 ------- null}
- -t 0.122 -s 2 -d 3 -p cbr -e 1000 -c 2 -i 1 -a 2 -x {1.0 9.1 1 ------- null}
h -t 0.122 -s 2 -d 3 -p cbr -e 1000 -c 2 -i 1 -a 2 -x {1.0 9.1 -1 ------- null}
+ -t 0.124 -s 1 -d 2 -p cbr -e 1000 -c 2 -i 3 -a 2 -x {1.0 9.1 3 ------- null}
- -t 0.124 -s 1 -d 2 -p cbr -e 1000 -c 2 -i 3 -a 2 -x {1.0 9.1 3 ------- null}
h -t 0.124 -s 1 -d 2 -p cbr -e 1000 -c 2 -i 3 -a 2 -x {1.0 9.1 -1 ------- null}
r -t 0.13 -s 1 -d 2 -p cbr -e 1000 -c 2 -i 2 -a 2 -x {1.0 9.1 2 ------- null}
+ -t 0.13 -s 2 -d 3 -p cbr -e 1000 -c 2 -i 2 -a 2 -x {1.0 9.1 2 ------- null}
- -t 0.13 -s 2 -d 3 -p cbr -e 1000 -c 2 -i 2 -a 2 -x {1.0 9.1 2 ------- null}
h -t 0.13 -s 2 -d 3 -p cbr -e 1000 -c 2 -i 2 -a 2 -x {1.0 9.1 -1 ------- null}
+ -t 0.132 -s 1 -d 2 -p cbr -e 1000 -c 2 -i 4 -a 2 -x {1.0 9.1 4 ------- null}
- -t 0.132 -s 1 -d 2 -p cbr -e 1000 -c 2 -i 4 -a 2 -x {1.0 9.1 4 ------- null}
h -t 0.132 -s 1 -d 2 -p cbr -e 1000 -c 2 -i 4 -a 2 -x {1.0 9.1 -1 ------- null}
r -t 0.138 -s 1 -d 2 -p cbr -e 1000 -c 2 -i 3 -a 2 -x {1.0 9.1 3 ------- null}
+ -t 0.138 -s 2 -d 3 -p cbr -e 1000 -c 2 -i 3 -a 2 -x {1.0 9.1 3 ------- null}
- -t 0.138 -s 2 -d 3 -p cbr -e 1000 -c 2 -i 3 -a 2 -x {1.0 9.1 3 ------- null}
h -t 0.138 -s 2 -d 3 -p cbr -e 1000 -c 2 -i 3 -a 2 -x {1.0 9.1 -1 ------- null}
r -t 0.138705882352941 -s 2 -d 3 -p cbr -e 1000 -c 2 -i 0 -a 2 -x {1.0 9.1 0 ------- null}
+ -t 0.138705882352941 -s 3 -d 4 -p cbr -e 1000 -c 2 -i 0 -a 2 -x {1.0 9.1 0 ------- null}
- -t 0.138705882352941 -s 3 -d 4 -p cbr -e 1000 -c 2 -i 0 -a 2 -x {1.0 9.1 0 ------- null}
h -t 0.138705882352941 -s 3 -d 4 -p cbr -e 1000 -c 2 -i 0 -a 2 -x {1.0 9.1 -1 ------- null}
+ -t 0.14 -s 1 -d 2 -p cbr -e 1000 -c 2 -i 5 -a 2 -x {1.0 9.1 5 ------- null}
- -t 0.14 -s 1 -d 2 -p cbr -e 1000 -c 2 -i 5 -a 2 -x {1.0 9.1 5 ------- null}
h -t 0.14 -s 1 -d 2 -p cbr -e 1000 -c 2 -i 5 -a 2 -x {1.0 9.1 -1 ------- null}
r -t 0.146 -s 1 -d 2 -p cbr -e 1000 -c 2 -i 4 -a 2 -x {1.0 9.1 4 ------- null}
+ -t 0.146 -s 2 -d 3 -p cbr -e 1000 -c 2 -i 4 -a 2 -x {1.0 9.1 4 ------- null}
- -t 0.146 -s 2 -d 3 -p cbr -e 1000 -c 2 -i 4 -a 2 -x {1.0 9.1 4 ------- null}
h -t 0.146 -s 2 -d 3 -p cbr -e 1000 -c 2 -i 4 -a 2 -x {1.0 9.1 -1 ------- null}
r -t 0.146705882352941 -s 2 -d 3 -p cbr -e 1000 -c 2 -i 1 -a 2 -x {1.0 9.1 1 ------- null}
+ -t 0.146705882352941 -s 3 -d 4 -p cbr -e 1000 -c 2 -i 1 -a 2 -x {1.0 9.1 1 ------- null}
- -t 0.146705882352941 -s 3 -d 4 -p cbr -e 1000 -c 2 -i 1 -a 2 -x {1.0 9.1 1 ------- null}
h -t 0.146705882352941 -s 3 -d 4 -p cbr -e 1000 -c 2 -i 1 -a 2 -x {1.0 9.1 -1 ------- null}
+ -t 0.148 -s 1 -d 2 -p cbr -e 1000 -c 2 -i 6 -a 2 -x {1.0 9.1 6 ------- null}
- -t 0.148 -s 1 -d 2 -p cbr -e 1000 -c 2 -i 6 -a 2 -x {1.0 9.1 6 ------- null}
h -t 0.148 -s 1 -d 2 -p cbr -e 1000 -c 2 -i 6 -a 2 -x {1.0 9.1 -1 ------- null}
r -t 0.152705882352941 -s 3 -d 4 -p cbr -e 1000 -c 2 -i 0 -a 2 -x {1.0 9.1 0 ------- null}
+ -t 0.152705882352941 -s 4 -d 5 -p cbr -e 1000 -c 2 -i 0 -a 2 -x {1.0 9.1 0 ------- null}
- -t 0.152705882352941 -s 4 -d 5 -p cbr -e 1000 -c 2 -i 0 -a 2 -x {1.0 9.1 0 ------- null}
h -t 0.152705882352941 -s 4 -d 5 -p cbr -e 1000 -c 2 -i 0 -a 2 -x {1.0 9.1 -1 ------- null}
r -t 0.154 -s 1 -d 2 -p cbr -e 1000 -c 2 -i 5 -a 2 -x {1.0 9.1 5 ------- null}
+ -t 0.154 -s 2 -d 3 -p cbr -e 1000 -c 2 -i 5 -a 2 -x {1.0 9.1 5 ------- null}
- -t 0.154 -s 2 -d 3 -p cbr -e 1000 -c 2 -i 5 -a 2 -x {1.0 9.1 5 ------- null}
h -t 0.154 -s 2 -d 3 -p cbr -e 1000 -c 2 -i 5 -a 2 -x {1.0 9.1 -1 ------- null}
r -t 0.154705882352941 -s 2 -d 3 -p cbr -e 1000 -c 2 -i 2 -a 2 -x {1.0 9.1 2 ------- null}
+ -t 0.154705882352941 -s 3 -d 4 -p cbr -e 1000 -c 2 -i 2 -a 2 -x {1.0 9.1 2 ------- null}
- -t 0.154705882352941 -s 3 -d 4 -p cbr -e 1000 -c 2 -i 2 -a 2 -x {1.0 9.1 2 ------- null}
h -t 0.154705882352941 -s 3 -d 4 -p cbr -e 1000 -c 2 -i 2 -a 2 -x {1.0 9.1 -1 ------- null}
+ -t 0.156 -s 1 -d 2 -p cbr -e 1000 -c 2 -i 7 -a 2 -x {1.0 9.1 7 ------- null}
- -t 0.156 -s 1 -d 2 -p cbr -e 1000 -c 2 -i 7 -a 2 -x {1.0 9.1 7 ------- null}
h -t 0.156 -s 1 -d 2 -p cbr -e 1000 -c 2 -i 7 -a 2 -x {1.0 9.1 -1 ------- null}
r -t 0.160705882352941 -s 3 -d 4 -p cbr -e 1000 -c 2 -i 1 -a 2 -x {1.0 9.1 1 ------- null}
+ -t 0.160705882352941 -s 4 -d 5 -p cbr -e 1000 -c 2 -i 1 -a 2 -x {1.0 9.1 1 ------- null}
- -t 0.160705882352941 -s 4 -d 5 -p cbr -e 1000 -c 2 -i 1 -a 2 -x {1.0 9.1 1 ------- null}
h -t 0.160705882352941 -s 4 -d 5 -p cbr -e 1000 -c 2 -i 1 -a 2 -x {1.0 9.1 -1 ------- null}
r -t 0.162 -s 1 -d 2 -p cbr -e 1000 -c 2 -i 6 -a 2 -x {1.0 9.1 6 ------- null}
+ -t 0.162 -s 2 -d 3 -p cbr -e 1000 -c 2 -i 6 -a 2 -x {1.0 9.1 6 ------- null}
- -t 0.162 -s 2 -d 3 -p cbr -e 1000 -c 2 -i 6 -a 2 -x {1.0 9.1 6 ------- null}
h -t 0.162 -s 2 -d 3 -p cbr -e 1000 -c 2 -i 6 -a 2 -x {1.0 9.1 -1 ------- null}
r -t 0.162705882352941 -s 2 -d 3 -p cbr -e 1000 -c 2 -i 3 -a 2 -x {1.0 9.1 3 ------- null}
+ -t 0.162705882352941 -s 3 -d 4 -p cbr -e 1000 -c 2 -i 3 -a 2 -x {1.0 9.1 3 ------- null}
- -t 0.162705882352941 -s 3 -d 4 -p cbr -e 1000 -c 2 -i 3 -a 2 -x {1.0 9.1 3 ------- null}
h -t 0.162705882352941 -s 3 -d 4 -p cbr -e 1000 -c 2 -i 3 -a 2 -x {1.0 9.1 -1 ------- null}
+ -t 0.164 -s 1 -d 2 -p cbr -e 1000 -c 2 -i 8 -a 2 -x {1.0 9.1 8 ------- null}
- -t 0.164 -s 1 -d 2 -p cbr -e 1000 -c 2 -i 8 -a 2 -x {1.0 9.1 8 ------- null}
h -t 0.164 -s 1 -d 2 -p cbr -e 1000 -c 2 -i 8 -a 2 -x {1.0 9.1 -1 ------- null}
r -t 0.166705882352941 -s 4 -d 5 -p cbr -e 1000 -c 2 -i 0 -a 2 -x {1.0 9.1 0 ------- null}
+ -t 0.166705882352941 -s 5 -d 6 -p cbr -e 1000 -c 2 -i 0 -a 2 -x {1.0 9.1 0 ------- null}
- -t 0.166705882352941 -s 5 -d 6 -p cbr -e 1000 -c 2 -i 0 -a 2 -x {1.0 9.1 0 ------- null}
h -t 0.166705882352941 -s 5 -d 6 -p cbr -e 1000 -c 2 -i 0 -a 2 -x {1.0 9.1 -1 ------- null}
r -t 0.168705882352941 -s 3 -d 4 -p cbr -e 1000 -c 2 -i 2 -a 2 -x {1.0 9.1 2 ------- null}
+ -t 0.168705882352941 -s 4 -d 5 -p cbr -e 1000 -c 2 -i 2 -a 2 -x {1.0 9.1 2 ------- null}
- -t 0.168705882352941 -s 4 -d 5 -p cbr -e 1000 -c 2 -i 2 -a 2 -x {1.0 9.1 2 ------- null}
h -t 0.168705882352941 -s 4 -d 5 -p cbr -e 1000 -c 2 -i 2 -a 2 -x {1.0 9.1 -1 ------- null}
r -t 0.17 -s 1 -d 2 -p cbr -e 1000 -c 2 -i 7 -a 2 -x {1.0 9.1 7 ------- null}
+ -t 0.17 -s 2 -d 3 -p cbr -e 1000 -c 2 -i 7 -a 2 -x {1.0 9.1 7 ------- null}
- -t 0.17 -s 2 -d 3 -p cbr -e 1000 -c 2 -i 7 -a 2 -x {1.0 9.1 7 ------- null}
h -t 0.17 -s 2 -d 3 -p cbr -e 1000 -c 2 -i 7 -a 2 -x {1.0 9.1 -1 ------- null}
r -t 0.170705882352941 -s 2 -d 3 -p cbr -e 1000 -c 2 -i 4 -a 2 -x {1.0 9.1 4 ------- null}
+ -t 0.170705882352941 -s 3 -d 4 -p cbr -e 1000 -c 2 -i 4 -a 2 -x {1.0 9.1 4 ------- null}
- -t 0.170705882352941 -s 3 -d 4 -p cbr -e 1000 -c 2 -i 4 -a 2 -x {1.0 9.1 4 ------- null}
h -t 0.170705882352941 -s 3 -d 4 -p cbr -e 1000 -c 2 -i 4 -a 2 -x {1.0 9.1 -1 ------- null}
+ -t 0.172 -s 1 -d 2 -p cbr -e 1000 -c 2 -i 9 -a 2 -x {1.0 9.1 9 ------- null}
- -t 0.172 -s 1 -d 2 -p cbr -e 1000 -c 2 -i 9 -a 2 -x {1.0 9.1 9 ------- null}
h -t 0.172 -s 1 -d 2 -p cbr -e 1000 -c 2 -i 9 -a 2 -x {1.0 9.1 -1 ------- null}
r -t 0.174705882352941 -s 4 -d 5 -p cbr -e 1000 -c 2 -i 1 -a 2 -x {1.0 9.1 1 ------- null}
+ -t 0.174705882352941 -s 5 -d 6 -p cbr -e 1000 -c 2 -i 1 -a 2 -x {1.0 9.1 1 ------- null}
- -t 0.174705882352941 -s 5 -d 6 -p cbr -e 1000 -c 2 -i 1 -a 2 -x {1.0 9.1 1 ------- null}
h -t 0.174705882352941 -s 5 -d 6 -p cbr -e 1000 -c 2 -i 1 -a 2 -x {1.0 9.1 -1 ------- null}
r -t 0.176705882352941 -s 3 -d 4 -p cbr -e 1000 -c 2 -i 3 -a 2 -x {1.0 9.1 3 ------- null}
+ -t 0.176705882352941 -s 4 -d 5 -p cbr -e 1000 -c 2 -i 3 -a 2 -x {1.0 9.1 3 ------- null}
- -t 0.176705882352941 -s 4 -d 5 -p cbr -e 1000 -c 2 -i 3 -a 2 -x {1.0 9.1 3 ------- null}
h -t 0.176705882352941 -s 4 -d 5 -p cbr -e 1000 -c 2 -i 3 -a 2 -x {1.0 9.1 -1 ------- null}
r -t 0.178 -s 1 -d 2 -p cbr -e 1000 -c 2 -i 8 -a 2 -x {1.0 9.1 8 ------- null}
+ -t 0.178 -s 2 -d 3 -p cbr -e 1000 -c 2 -i 8 -a 2 -x {1.0 9.1 8 ------- null}
- -t 0.178 -s 2 -d 3 -p cbr -e 1000 -c 2 -i 8 -a 2 -x {1.0 9.1 8 ------- null}
h -t 0.178 -s 2 -d 3 -p cbr -e 1000 -c 2 -i 8 -a 2 -x {1.0 9.1 -1 ------- null}
r -t 0.178705882352941 -s 2 -d 3 -p cbr -e 1000 -c 2 -i 5 -a 2 -x {1.0 9.1 5 ------- null}
+ -t 0.178705882352941 -s 3 -d 4 -p cbr -e 1000 -c 2 -i 5 -a 2 -x {1.0 9.1 5 ------- null}
- -t 0.178705882352941 -s 3 -d 4 -p cbr -e 1000 -c 2 -i 5 -a 2 -x {1.0 9.1 5 ------- null}
h -t 0.178705882352941 -s 3 -d 4 -p cbr -e 1000 -c 2 -i 5 -a 2 -x {1.0 9.1 -1 ------- null}
+ -t 0.18 -s 1 -d 2 -p cbr -e 1000 -c 2 -i 10 -a 2 -x {1.0 9.1 10 ------- null}
- -t 0.18 -s 1 -d 2 -p cbr -e 1000 -c 2 -i 10 -a 2 -x {1.0 9.1 10 ------- null}
h -t 0.18 -s 1 -d 2 -p cbr -e 1000 -c 2 -i 10 -a 2 -x {1.0 9.1 -1 ------- null}
r -t 0.182705882352941 -s 4 -d 5 -p cbr -e 1000 -c 2 -i 2 -a 2 -x {1.0 9.1 2 ------- null}
+ -t 0.182705882352941 -s 5 -d 6 -p cbr -e 1000 -c 2 -i 2 -a 2 -x {1.0 9.1 2 ------- null}
- -t 0.182705882352941 -s 5 -d 6 -p cbr -e 1000 -c 2 -i 2 -a 2 -x {1.0 9.1 2 ------- null}
h -t 0.182705882352941 -s 5 -d 6 -p cbr -e 1000 -c 2 -i 2 -a 2 -x {1.0 9.1 -1 ------- null}
r -t 0.184705882352941 -s 3 -d 4 -p cbr -e 1000 -c 2 -i 4 -a 2 -x {1.0 9.1 4 ------- null}
+ -t 0.184705882352941 -s 4 -d 5 -p cbr -e 1000 -c 2 -i 4 -a 2 -x {1.0 9.1 4 ------- null}
- -t 0.184705882352941 -s 4 -d 5 -p cbr -e 1000 -c 2 -i 4 -a 2 -x {1.0 9.1 4 ------- null}
h -t 0.184705882352941 -s 4 -d 5 -p cbr -e 1000 -c 2 -i 4 -a 2 -x {1.0 9.1 -1 ------- null}
r -t 0.186 -s 1 -d 2 -p cbr -e 1000 -c 2 -i 9 -a 2 -x {1.0 9.1 9 ------- null}
+ -t 0.186 -s 2 -d 3 -p cbr -e 1000 -c 2 -i 9 -a 2 -x {1.0 9.1 9 ------- null}
- -t 0.186 -s 2 -d 3 -p cbr -e 1000 -c 2 -i 9 -a 2 -x {1.0 9.1 9 ------- null}
h -t 0.186 -s 2 -d 3 -p cbr -e 1000 -c 2 -i 9 -a 2 -x {1.0 9.1 -1 ------- null}
r -t 0.186705882352941 -s 2 -d 3 -p cbr -e 1000 -c 2 -i 6 -a 2 -x {1.0 9.1 6 ------- null}
+ -t 0.186705882352941 -s 3 -d 4 -p cbr -e 1000 -c 2 -i 6 -a 2 -x {1.0 9.1 6 ------- null}
- -t 0.186705882352941 -s 3 -d 4 -p cbr -e 1000 -c 2 -i 6 -a 2 -x {1.0 9.1 6 ------- null}
h -t 0.186705882352941 -s 3 -d 4 -p cbr -e 1000 -c 2 -i 6 -a 2 -x {1.0 9.1 -1 ------- null}
+ -t 0.188 -s 1 -d 2 -p cbr -e 1000 -c 2 -i 11 -a 2 -x {1.0 9.1 11 ------- null}
- -t 0.188 -s 1 -d 2 -p cbr -e 1000 -c 2 -i 11 -a 2 -x {1.0 9.1 11 ------- null}
h -t 0.188 -s 1 -d 2 -p cbr -e 1000 -c 2 -i 11 -a 2 -x {1.0 9.1 -1 ------- null}
r -t 0.190705882352941 -s 4 -d 5 -p cbr -e 1000 -c 2 -i 3 -a 2 -x {1.0 9.1 3 ------- null}
+ -t 0.190705882352941 -s 5 -d 6 -p cbr -e 1000 -c 2 -i 3 -a 2 -x {1.0 9.1 3 ------- null}
- -t 0.190705882352941 -s 5 -d 6 -p cbr -e 1000 -c 2 -i 3 -a 2 -x {1.0 9.1 3 ------- null}
h -t 0.190705882352941 -s 5 -d 6 -p cbr -e 1000 -c 2 -i 3 -a 2 -x {1.0 9.1 -1 ------- null}
r -t 0.191411764705882 -s 5 -d 6 -p cbr -e 1000 -c 2 -i 0 -a 2 -x {1.0 9.1 0 ------- null}
+ -t 0.191411764705882 -s 6 -d 7 -p cbr -e 1000 -c 2 -i 0 -a 2 -x {1.0 9.1 0 ------- null}
- -t 0.191411764705882 -s 6 -d 7 -p cbr -e 1000 -c 2 -i 0 -a 2 -x {1.0 9.1 0 ------- null}
h -t 0.191411764705882 -s 6 -d 7 -p cbr -e 1000 -c 2 -i 0 -a 2 -x {1.0 9.1 -1 ------- null}
r -t 0.192705882352941 -s 3 -d 4 -p cbr -e 1000 -c 2 -i 5 -a 2 -x {1.0 9.1 5 ------- null}
+ -t 0.192705882352941 -s 4 -d 5 -p cbr -e 1000 -c 2 -i 5 -a 2 -x {1.0 9.1 5 ------- null}
- -t 0.192705882352941 -s 4 -d 5 -p cbr -e 1000 -c 2 -i 5 -a 2 -x {1.0 9.1 5 ------- null}
h -t 0.192705882352941 -s 4 -d 5 -p cbr -e 1000 -c 2 -i 5 -a 2 -x {1.0 9.1 -1 ------- null}
r -t 0.194 -s 1 -d 2 -p cbr -e 1000 -c 2 -i 10 -a 2 -x {1.0 9.1 10 ------- null}
+ -t 0.194 -s 2 -d 3 -p cbr -e 1000 -c 2 -i 10 -a 2 -x {1.0 9.1 10 ------- null}
- -t 0.194 -s 2 -d 3 -p cbr -e 1000 -c 2 -i 10 -a 2 -x {1.0 9.1 10 ------- null}
h -t 0.194 -s 2 -d 3 -p cbr -e 1000 -c 2 -i 10 -a 2 -x {1.0 9.1 -1 ------- null}
r -t 0.194705882352941 -s 2 -d 3 -p cbr -e 1000 -c 2 -i 7 -a 2 -x {1.0 9.1 7 ------- null}
+ -t 0.194705882352941 -s 3 -d 4 -p cbr -e 1000 -c 2 -i 7 -a 2 -x {1.0 9.1 7 ------- null}
- -t 0.194705882352941 -s 3 -d 4 -p cbr -e 1000 -c 2 -i 7 -a 2 -x {1.0 9.1 7 ------- null}
h -t 0.194705882352941 -s 3 -d 4 -p cbr -e 1000 -c 2 -i 7 -a 2 -x {1.0 9.1 -1 ------- null}
+ -t 0.196 -s 1 -d 2 -p cbr -e 1000 -c 2 -i 12 -a 2 -x {1.0 9.1 12 ------- null}
- -t 0.196 -s 1 -d 2 -p cbr -e 1000 -c 2 -i 12 -a 2 -x {1.0 9.1 12 ------- null}
h -t 0.196 -s 1 -d 2 -p cbr -e 1000 -c 2 -i 12 -a 2 -x {1.0 9.1 -1 ------- null}
r -t 0.198705882352941 -s 4 -d 5 -p cbr -e 1000 -c 2 -i 4 -a 2 -x {1.0 9.1 4 ------- null}
+ -t 0.198705882352941 -s 5 -d 6 -p cbr -e 1000 -c 2 -i 4 -a 2 -x {1.0 9.1 4 ------- null}
- -t 0.198705882352941 -s 5 -d 6 -p cbr -e 1000 -c 2 -i 4 -a 2 -x {1.0 9.1 4 ------- null}
h -t 0.198705882352941 -s 5 -d 6 -p cbr -e 1000 -c 2 -i 4 -a 2 -x {1.0 9.1 -1 ------- null}
r -t 0.199411764705882 -s 5 -d 6 -p cbr -e 1000 -c 2 -i 1 -a 2 -x {1.0 9.1 1 ------- null}
+ -t 0.199411764705882 -s 6 -d 7 -p cbr -e 1000 -c 2 -i 1 -a 2 -x {1.0 9.1 1 ------- null}
- -t 0.199411764705882 -s 6 -d 7 -p cbr -e 1000 -c 2 -i 1 -a 2 -x {1.0 9.1 1 ------- null}
h -t 0.199411764705882 -s 6 -d 7 -p cbr -e 1000 -c 2 -i 1 -a 2 -x {1.0 9.1 -1 ------- null}
r -t 0.200705882352941 -s 3 -d 4 -p cbr -e 1000 -c 2 -i 6 -a 2 -x {1.0 9.1 6 ------- null}
+ -t 0.200705882352941 -s 4 -d 5 -p cbr -e 1000 -c 2 -i 6 -a 2 -x {1.0 9.1 6 ------- null}
- -t 0.200705882352941 -s 4 -d 5 -p cbr -e 1000 -c 2 -i 6 -a 2 -x {1.0 9.1 6 ------- null}
h -t 0.200705882352941 -s 4 -d 5 -p cbr -e 1000 -c 2 -i 6 -a 2 -x {1.0 9.1 -1 ------- null}
r -t 0.202 -s 1 -d 2 -p cbr -e 1000 -c 2 -i 11 -a 2 -x {1.0 9.1 11 ------- null}
+ -t 0.202 -s 2 -d 3 -p cbr -e 1000 -c 2 -i 11 -a 2 -x {1.0 9.1 11 ------- null}
- -t 0.202 -s 2 -d 3 -p cbr -e 1000 -c 2 -i 11 -a 2 -x {1.0 9.1 11 ------- null}
h -t 0.202 -s 2 -d 3 -p cbr -e 1000 -c 2 -i 11 -a 2 -x {1.0 9.1 -1 ------- null}
r -t 0.202705882352941 -s 2 -d 3 -p cbr -e 1000 -c 2 -i 8 -a 2 -x {1.0 9.1 8 ------- null}
+ -t 0.202705882352941 -s 3 -d 4 -p cbr -e 1000 -c 2 -i 8 -a 2 -x {1.0 9.1 8 ------- null}
- -t 0.202705882352941 -s 3 -d 4 -p cbr -e 1000 -c 2 -i 8 -a 2 -x {1.0 9.1 8 ------- null}
h -t 0.202705882352941 -s 3 -d 4 -p cbr -e 1000 -c 2 -i 8 -a 2 -x {1.0 9.1 -1 ------- null}
+ -t 0.204 -s 1 -d 2 -p cbr -e 1000 -c 2 -i 13 -a 2 -x {1.0 9.1 13 ------- null}
- -t 0.204 -s 1 -d 2 -p cbr -e 1000 -c 2 -i 13 -a 2 -x {1.0 9.1 13 ------- null}
h -t 0.204 -s 1 -d 2 -p cbr -e 1000 -c 2 -i 13 -a 2 -x {1.0 9.1 -1 ------- null}
r -t 0.205411764705882 -s 6 -d 7 -p cbr -e 1000 -c 2 -i 0 -a 2 -x {1.0 9.1 0 ------- null}
+ -t 0.205411764705882 -s 7 -d 8 -p cbr -e 1000 -c 2 -i 0 -a 2 -x {1.0 9.1 0 ------- null}
- -t 0.205411764705882 -s 7 -d 8 -p cbr -e 1000 -c 2 -i 0 -a 2 -x {1.0 9.1 0 ------- null}
h -t 0.205411764705882 -s 7 -d 8 -p cbr -e 1000 -c 2 -i 0 -a 2 -x {1.0 9.1 -1 ------- null}
r -t 0.206705882352941 -s 4 -d 5 -p cbr -e 1000 -c 2 -i 5 -a 2 -x {1.0 9.1 5 ------- null}
+ -t 0.206705882352941 -s 5 -d 6 -p cbr -e 1000 -c 2 -i 5 -a 2 -x {1.0 9.1 5 ------- null}
- -t 0.206705882352941 -s 5 -d 6 -p cbr -e 1000 -c 2 -i 5 -a 2 -x {1.0 9.1 5 ------- null}
h -t 0.206705882352941 -s 5 -d 6 -p cbr -e 1000 -c 2 -i 5 -a 2 -x {1.0 9.1 -1 ------- null}
r -t 0.207411764705882 -s 5 -d 6 -p cbr -e 1000 -c 2 -i 2 -a 2 -x {1.0 9.1 2 ------- null}
+ -t 0.207411764705882 -s 6 -d 7 -p cbr -e 1000 -c 2 -i 2 -a 2 -x {1.0 9.1 2 ------- null}
- -t 0.207411764705882 -s 6 -d 7 -p cbr -e 1000 -c 2 -i 2 -a 2 -x {1.0 9.1 2 ------- null}
h -t 0.207411764705882 -s 6 -d 7 -p cbr -e 1000 -c 2 -i 2 -a 2 -x {1.0 9.1 -1 ------- null}
r -t 0.208705882352941 -s 3 -d 4 -p cbr -e 1000 -c 2 -i 7 -a 2 -x {1.0 9.1 7 ------- null}
+ -t 0.208705882352941 -s 4 -d 5 -p cbr -e 1000 -c 2 -i 7 -a 2 -x {1.0 9.1 7 ------- null}
- -t 0.208705882352941 -s 4 -d 5 -p cbr -e 1000 -c 2 -i 7 -a 2 -x {1.0 9.1 7 ------- null}
h -t 0.208705882352941 -s 4 -d 5 -p cbr -e 1000 -c 2 -i 7 -a 2 -x {1.0 9.1 -1 ------- null}
r -t 0.21 -s 1 -d 2 -p cbr -e 1000 -c 2 -i 12 -a 2 -x {1.0 9.1 12 ------- null}
+ -t 0.21 -s 2 -d 3 -p cbr -e 1000 -c 2 -i 12 -a 2 -x {1.0 9.1 12 ------- null}
- -t 0.21 -s 2 -d 3 -p cbr -e 1000 -c 2 -i 12 -a 2 -x {1.0 9.1 12 ------- null}
h -t 0.21 -s 2 -d 3 -p cbr -e 1000 -c 2 -i 12 -a 2 -x {1.0 9.1 -1 ------- null}
r -t 0.210705882352941 -s 2 -d 3 -p cbr -e 1000 -c 2 -i 9 -a 2 -x {1.0 9.1 9 ------- null}
+ -t 0.210705882352941 -s 3 -d 4 -p cbr -e 1000 -c 2 -i 9 -a 2 -x {1.0 9.1 9 ------- null}
- -t 0.210705882352941 -s 3 -d 4 -p cbr -e 1000 -c 2 -i 9 -a 2 -x {1.0 9.1 9 ------- null}
h -t 0.210705882352941 -s 3 -d 4 -p cbr -e 1000 -c 2 -i 9 -a 2 -x {1.0 9.1 -1 ------- null}
+ -t 0.212 -s 1 -d 2 -p cbr -e 1000 -c 2 -i 14 -a 2 -x {1.0 9.1 14 ------- null}
- -t 0.212 -s 1 -d 2 -p cbr -e 1000 -c 2 -i 14 -a 2 -x {1.0 9.1 14 ------- null}
h -t 0.212 -s 1 -d 2 -p cbr -e 1000 -c 2 -i 14 -a 2 -x {1.0 9.1 -1 ------- null}
r -t 0.213411764705882 -s 6 -d 7 -p cbr -e 1000 -c 2 -i 1 -a 2 -x {1.0 9.1 1 ------- null}
+ -t 0.213411764705882 -s 7 -d 8 -p cbr -e 1000 -c 2 -i 1 -a 2 -x {1.0 9.1 1 ------- null}
- -t 0.213411764705882 -s 7 -d 8 -p cbr -e 1000 -c 2 -i 1 -a 2 -x {1.0 9.1 1 ------- null}
h -t 0.213411764705882 -s 7 -d 8 -p cbr -e 1000 -c 2 -i 1 -a 2 -x {1.0 9.1 -1 ------- null}
r -t 0.214705882352941 -s 4 -d 5 -p cbr -e 1000 -c 2 -i 6 -a 2 -x {1.0 9.1 6 ------- null}
+ -t 0.214705882352941 -s 5 -d 6 -p cbr -e 1000 -c 2 -i 6 -a 2 -x {1.0 9.1 6 ------- null}
- -t 0.214705882352941 -s 5 -d 6 -p cbr -e 1000 -c 2 -i 6 -a 2 -x {1.0 9.1 6 ------- null}
h -t 0.214705882352941 -s 5 -d 6 -p cbr -e 1000 -c 2 -i 6 -a 2 -x {1.0 9.1 -1 ------- null}
r -t 0.215411764705882 -s 5 -d 6 -p cbr -e 1000 -c 2 -i 3 -a 2 -x {1.0 9.1 3 ------- null}
+ -t 0.215411764705882 -s 6 -d 7 -p cbr -e 1000 -c 2 -i 3 -a 2 -x {1.0 9.1 3 ------- null}
- -t 0.215411764705882 -s 6 -d 7 -p cbr -e 1000 -c 2 -i 3 -a 2 -x {1.0 9.1 3 ------- null}
h -t 0.215411764705882 -s 6 -d 7 -p cbr -e 1000 -c 2 -i 3 -a 2 -x {1.0 9.1 -1 ------- null}
r -t 0.216705882352941 -s 3 -d 4 -p cbr -e 1000 -c 2 -i 8 -a 2 -x {1.0 9.1 8 ------- null}
+ -t 0.216705882352941 -s 4 -d 5 -p cbr -e 1000 -c 2 -i 8 -a 2 -x {1.0 9.1 8 ------- null}
- -t 0.216705882352941 -s 4 -d 5 -p cbr -e 1000 -c 2 -i 8 -a 2 -x {1.0 9.1 8 ------- null}
h -t 0.216705882352941 -s 4 -d 5 -p cbr -e 1000 -c 2 -i 8 -a 2 -x {1.0 9.1 -1 ------- null}
r -t 0.218 -s 1 -d 2 -p cbr -e 1000 -c 2 -i 13 -a 2 -x {1.0 9.1 13 ------- null}
+ -t 0.218 -s 2 -d 3 -p cbr -e 1000 -c 2 -i 13 -a 2 -x {1.0 9.1 13 ------- null}
- -t 0.218 -s 2 -d 3 -p cbr -e 1000 -c 2 -i 13 -a 2 -x {1.0 9.1 13 ------- null}
h -t 0.218 -s 2 -d 3 -p cbr -e 1000 -c 2 -i 13 -a 2 -x {1.0 9.1 -1 ------- null}
r -t 0.218705882352941 -s 2 -d 3 -p cbr -e 1000 -c 2 -i 10 -a 2 -x {1.0 9.1 10 ------- null}
+ -t 0.218705882352941 -s 3 -d 4 -p cbr -e 1000 -c 2 -i 10 -a 2 -x {1.0 9.1 10 ------- null}
- -t 0.218705882352941 -s 3 -d 4 -p cbr -e 1000 -c 2 -i 10 -a 2 -x {1.0 9.1 10 ------- null}
h -t 0.218705882352941 -s 3 -d 4 -p cbr -e 1000 -c 2 -i 10 -a 2 -x {1.0 9.1 -1 ------- null}
r -t 0.219411764705882 -s 7 -d 8 -p cbr -e 1000 -c 2 -i 0 -a 2 -x {1.0 9.1 0 ------- null}
+ -t 0.219411764705882 -s 8 -d 9 -p cbr -e 1000 -c 2 -i 0 -a 2 -x {1.0 9.1 0 ------- null}
- -t 0.219411764705882 -s 8 -d 9 -p cbr -e 1000 -c 2 -i 0 -a 2 -x {1.0 9.1 0 ------- null}
h -t 0.219411764705882 -s 8 -d 9 -p cbr -e 1000 -c 2 -i 0 -a 2 -x {1.0 9.1 -1 ------- null}
+ -t 0.22 -s 1 -d 2 -p cbr -e 1000 -c 2 -i 15 -a 2 -x {1.0 9.1 15 ------- null}
- -t 0.22 -s 1 -d 2 -p cbr -e 1000 -c 2 -i 15 -a 2 -x {1.0 9.1 15 ------- null}
h -t 0.22 -s 1 -d 2 -p cbr -e 1000 -c 2 -i 15 -a 2 -x {1.0 9.1 -1 ------- null}
r -t 0.221411764705882 -s 6 -d 7 -p cbr -e 1000 -c 2 -i 2 -a 2 -x {1.0 9.1 2 ------- null}
+ -t 0.221411764705882 -s 7 -d 8 -p cbr -e 1000 -c 2 -i 2 -a 2 -x {1.0 9.1 2 ------- null}
- -t 0.221411764705882 -s 7 -d 8 -p cbr -e 1000 -c 2 -i 2 -a 2 -x {1.0 9.1 2 ------- null}
h -t 0.221411764705882 -s 7 -d 8 -p cbr -e 1000 -c 2 -i 2 -a 2 -x {1.0 9.1 -1 ------- null}
r -t 0.222705882352941 -s 4 -d 5 -p cbr -e 1000 -c 2 -i 7 -a 2 -x {1.0 9.1 7 ------- null}
+ -t 0.222705882352941 -s 5 -d 6 -p cbr -e 1000 -c 2 -i 7 -a 2 -x {1.0 9.1 7 ------- null}
- -t 0.222705882352941 -s 5 -d 6 -p cbr -e 1000 -c 2 -i 7 -a 2 -x {1.0 9.1 7 ------- null}
h -t 0.222705882352941 -s 5 -d 6 -p cbr -e 1000 -c 2 -i 7 -a 2 -x {1.0 9.1 -1 ------- null}
r -t 0.223411764705882 -s 5 -d 6 -p cbr -e 1000 -c 2 -i 4 -a 2 -x {1.0 9.1 4 ------- null}
+ -t 0.223411764705882 -s 6 -d 7 -p cbr -e 1000 -c 2 -i 4 -a 2 -x {1.0 9.1 4 ------- null}
- -t 0.223411764705882 -s 6 -d 7 -p cbr -e 1000 -c 2 -i 4 -a 2 -x {1.0 9.1 4 ------- null}
h -t 0.223411764705882 -s 6 -d 7 -p cbr -e 1000 -c 2 -i 4 -a 2 -x {1.0 9.1 -1 ------- null}
r -t 0.224705882352941 -s 3 -d 4 -p cbr -e 1000 -c 2 -i 9 -a 2 -x {1.0 9.1 9 ------- null}
+ -t 0.224705882352941 -s 4 -d 5 -p cbr -e 1000 -c 2 -i 9 -a 2 -x {1.0 9.1 9 ------- null}
- -t 0.224705882352941 -s 4 -d 5 -p cbr -e 1000 -c 2 -i 9 -a 2 -x {1.0 9.1 9 ------- null}
h -t 0.224705882352941 -s 4 -d 5 -p cbr -e 1000 -c 2 -i 9 -a 2 -x {1.0 9.1 -1 ------- null}
r -t 0.226 -s 1 -d 2 -p cbr -e 1000 -c 2 -i 14 -a 2 -x {1.0 9.1 14 ------- null}
+ -t 0.226 -s 2 -d 3 -p cbr -e 1000 -c 2 -i 14 -a 2 -x {1.0 9.1 14 ------- null}
- -t 0.226 -s 2 -d 3 -p cbr -e 1000 -c 2 -i 14 -a 2 -x {1.0 9.1 14 ------- null}
h -t 0.226 -s 2 -d 3 -p cbr -e 1000 -c 2 -i 14 -a 2 -x {1.0 9.1 -1 ------- null}
r -t 0.226705882352941 -s 2 -d 3 -p cbr -e 1000 -c 2 -i 11 -a 2 -x {1.0 9.1 11 ------- null}
+ -t 0.226705882352941 -s 3 -d 4 -p cbr -e 1000 -c 2 -i 11 -a 2 -x {1.0 9.1 11 ------- null}
- -t 0.226705882352941 -s 3 -d 4 -p cbr -e 1000 -c 2 -i 11 -a 2 -x {1.0 9.1 11 ------- null}
h -t 0.226705882352941 -s 3 -d 4 -p cbr -e 1000 -c 2 -i 11 -a 2 -x {1.0 9.1 -1 ------- null}
r -t 0.227411764705882 -s 7 -d 8 -p cbr -e 1000 -c 2 -i 1 -a 2 -x {1.0 9.1 1 ------- null}
+ -t 0.227411764705882 -s 8 -d 9 -p cbr -e 1000 -c 2 -i 1 -a 2 -x {1.0 9.1 1 ------- null}
- -t 0.227411764705882 -s 8 -d 9 -p cbr -e 1000 -c 2 -i 1 -a 2 -x {1.0 9.1 1 ------- null}
h -t 0.227411764705882 -s 8 -d 9 -p cbr -e 1000 -c 2 -i 1 -a 2 -x {1.0 9.1 -1 ------- null}
+ -t 0.228 -s 1 -d 2 -p cbr -e 1000 -c 2 -i 16 -a 2 -x {1.0 9.1 16 ------- null}
- -t 0.228 -s 1 -d 2 -p cbr -e 1000 -c 2 -i 16 -a 2 -x {1.0 9.1 16 ------- null}
h -t 0.228 -s 1 -d 2 -p cbr -e 1000 -c 2 -i 16 -a 2 -x {1.0 9.1 -1 ------- null}
r -t 0.229411764705882 -s 6 -d 7 -p cbr -e 1000 -c 2 -i 3 -a 2 -x {1.0 9.1 3 ------- null}
+ -t 0.229411764705882 -s 7 -d 8 -p cbr -e 1000 -c 2 -i 3 -a 2 -x {1.0 9.1 3 ------- null}
- -t 0.229411764705882 -s 7 -d 8 -p cbr -e 1000 -c 2 -i 3 -a 2 -x {1.0 9.1 3 ------- null}
h -t 0.229411764705882 -s 7 -d 8 -p cbr -e 1000 -c 2 -i 3 -a 2 -x {1.0 9.1 -1 ------- null}
r -t 0.230705882352941 -s 4 -d 5 -p cbr -e 1000 -c 2 -i 8 -a 2 -x {1.0 9.1 8 ------- null}
+ -t 0.230705882352941 -s 5 -d 6 -p cbr -e 1000 -c 2 -i 8 -a 2 -x {1.0 9.1 8 ------- null}
- -t 0.230705882352941 -s 5 -d 6 -p cbr -e 1000 -c 2 -i 8 -a 2 -x {1.0 9.1 8 ------- null}
h -t 0.230705882352941 -s 5 -d 6 -p cbr -e 1000 -c 2 -i 8 -a 2 -x {1.0 9.1 -1 ------- null}
r -t 0.231411764705882 -s 5 -d 6 -p cbr -e 1000 -c 2 -i 5 -a 2 -x {1.0 9.1 5 ------- null}
+ -t 0.231411764705882 -s 6 -d 7 -p cbr -e 1000 -c 2 -i 5 -a 2 -x {1.0 9.1 5 ------- null}
- -t 0.231411764705882 -s 6 -d 7 -p cbr -e 1000 -c 2 -i 5 -a 2 -x {1.0 9.1 5 ------- null}
h -t 0.231411764705882 -s 6 -d 7 -p cbr -e 1000 -c 2 -i 5 -a 2 -x {1.0 9.1 -1 ------- null}
r -t 0.232705882352941 -s 3 -d 4 -p cbr -e 1000 -c 2 -i 10 -a 2 -x {1.0 9.1 10 ------- null}
+ -t 0.232705882352941 -s 4 -d 5 -p cbr -e 1000 -c 2 -i 10 -a 2 -x {1.0 9.1 10 ------- null}
- -t 0.232705882352941 -s 4 -d 5 -p cbr -e 1000 -c 2 -i 10 -a 2 -x {1.0 9.1 10 ------- null}
h -t 0.232705882352941 -s 4 -d 5 -p cbr -e 1000 -c 2 -i 10 -a 2 -x {1.0 9.1 -1 ------- null}
r -t 0.234 -s 1 -d 2 -p cbr -e 1000 -c 2 -i 15 -a 2 -x {1.0 9.1 15 ------- null}
+ -t 0.234 -s 2 -d 3 -p cbr -e 1000 -c 2 -i 15 -a 2 -x {1.0 9.1 15 ------- null}
- -t 0.234 -s 2 -d 3 -p cbr -e 1000 -c 2 -i 15 -a 2 -x {1.0 9.1 15 ------- null}
h -t 0.234 -s 2 -d 3 -p cbr -e 1000 -c 2 -i 15 -a 2 -x {1.0 9.1 -1 ------- null}
r -t 0.234705882352941 -s 2 -d 3 -p cbr -e 1000 -c 2 -i 12 -a 2 -x {1.0 9.1 12 ------- null}
+ -t 0.234705882352941 -s 3 -d 4 -p cbr -e 1000 -c 2 -i 12 -a 2 -x {1.0 9.1 12 ------- null}
- -t 0.234705882352941 -s 3 -d 4 -p cbr -e 1000 -c 2 -i 12 -a 2 -x {1.0 9.1 12 ------- null}
h -t 0.234705882352941 -s 3 -d 4 -p cbr -e 1000 -c 2 -i 12 -a 2 -x {1.0 9.1 -1 ------- null}
r -t 0.235411764705882 -s 7 -d 8 -p cbr -e 1000 -c 2 -i 2 -a 2 -x {1.0 9.1 2 ------- null}
+ -t 0.235411764705882 -s 8 -d 9 -p cbr -e 1000 -c 2 -i 2 -a 2 -x {1.0 9.1 2 ------- null}
- -t 0.235411764705882 -s 8 -d 9 -p cbr -e 1000 -c 2 -i 2 -a 2 -x {1.0 9.1 2 ------- null}
h -t 0.235411764705882 -s 8 -d 9 -p cbr -e 1000 -c 2 -i 2 -a 2 -x {1.0 9.1 -1 ------- null}
+ -t 0.236 -s 1 -d 2 -p cbr -e 1000 -c 2 -i 17 -a 2 -x {1.0 9.1 17 ------- null}
- -t 0.236 -s 1 -d 2 -p cbr -e 1000 -c 2 -i 17 -a 2 -x {1.0 9.1 17 ------- null}
h -t 0.236 -s 1 -d 2 -p cbr -e 1000 -c 2 -i 17 -a 2 -x {1.0 9.1 -1 ------- null}
r -t 0.237411764705882 -s 6 -d 7 -p cbr -e 1000 -c 2 -i 4 -a 2 -x {1.0 9.1 4 ------- null}
+ -t 0.237411764705882 -s 7 -d 8 -p cbr -e 1000 -c 2 -i 4 -a 2 -x {1.0 9.1 4 ------- null}
- -t 0.237411764705882 -s 7 -d 8 -p cbr -e 1000 -c 2 -i 4 -a 2 -x {1.0 9.1 4 ------- null}
h -t 0.237411764705882 -s 7 -d 8 -p cbr -e 1000 -c 2 -i 4 -a 2 -x {1.0 9.1 -1 ------- null}
r -t 0.238705882352941 -s 4 -d 5 -p cbr -e 1000 -c 2 -i 9 -a 2 -x {1.0 9.1 9 ------- null}
+ -t 0.238705882352941 -s 5 -d 6 -p cbr -e 1000 -c 2 -i 9 -a 2 -x {1.0 9.1 9 ------- null}
- -t 0.238705882352941 -s 5 -d 6 -p cbr -e 1000 -c 2 -i 9 -a 2 -x {1.0 9.1 9 ------- null}
h -t 0.238705882352941 -s 5 -d 6 -p cbr -e 1000 -c 2 -i 9 -a 2 -x {1.0 9.1 -1 ------- null}
r -t 0.239411764705882 -s 5 -d 6 -p cbr -e 1000 -c 2 -i 6 -a 2 -x {1.0 9.1 6 ------- null}
+ -t 0.239411764705882 -s 6 -d 7 -p cbr -e 1000 -c 2 -i 6 -a 2 -x {1.0 9.1 6 ------- null}
- -t 0.239411764705882 -s 6 -d 7 -p cbr -e 1000 -c 2 -i 6 -a 2 -x {1.0 9.1 6 ------- null}
h -t 0.239411764705882 -s 6 -d 7 -p cbr -e 1000 -c 2 -i 6 -a 2 -x {1.0 9.1 -1 ------- null}
r -t 0.240705882352941 -s 3 -d 4 -p cbr -e 1000 -c 2 -i 11 -a 2 -x {1.0 9.1 11 ------- null}
+ -t 0.240705882352941 -s 4 -d 5 -p cbr -e 1000 -c 2 -i 11 -a 2 -x {1.0 9.1 11 ------- null}
- -t 0.240705882352941 -s 4 -d 5 -p cbr -e 1000 -c 2 -i 11 -a 2 -x {1.0 9.1 11 ------- null}
h -t 0.240705882352941 -s 4 -d 5 -p cbr -e 1000 -c 2 -i 11 -a 2 -x {1.0 9.1 -1 ------- null}
r -t 0.242 -s 1 -d 2 -p cbr -e 1000 -c 2 -i 16 -a 2 -x {1.0 9.1 16 ------- null}
+ -t 0.242 -s 2 -d 3 -p cbr -e 1000 -c 2 -i 16 -a 2 -x {1.0 9.1 16 ------- null}
- -t 0.242 -s 2 -d 3 -p cbr -e 1000 -c 2 -i 16 -a 2 -x {1.0 9.1 16 ------- null}
h -t 0.242 -s 2 -d 3 -p cbr -e 1000 -c 2 -i 16 -a 2 -x {1.0 9.1 -1 ------- null}
r -t 0.242705882352941 -s 2 -d 3 -p cbr -e 1000 -c 2 -i 13 -a 2 -x {1.0 9.1 13 ------- null}
+ -t 0.242705882352941 -s 3 -d 4 -p cbr -e 1000 -c 2 -i 13 -a 2 -x {1.0 9.1 13 ------- null}
- -t 0.242705882352941 -s 3 -d 4 -p cbr -e 1000 -c 2 -i 13 -a 2 -x {1.0 9.1 13 ------- null}
h -t 0.242705882352941 -s 3 -d 4 -p cbr -e 1000 -c 2 -i 13 -a 2 -x {1.0 9.1 -1 ------- null}
r -t 0.243411764705882 -s 7 -d 8 -p cbr -e 1000 -c 2 -i 3 -a 2 -x {1.0 9.1 3 ------- null}
+ -t 0.243411764705882 -s 8 -d 9 -p cbr -e 1000 -c 2 -i 3 -a 2 -x {1.0 9.1 3 ------- null}
- -t 0.243411764705882 -s 8 -d 9 -p cbr -e 1000 -c 2 -i 3 -a 2 -x {1.0 9.1 3 ------- null}
h -t 0.243411764705882 -s 8 -d 9 -p cbr -e 1000 -c 2 -i 3 -a 2 -x {1.0 9.1 -1 ------- null}